WaterOptGV                                                              
Freq      RMP2-FC                                                     Aug-CC-pVDZ         
Number of atoms                            I                3
Info1-9                                    I   N=           9
          14          13        1002           0           0         100
           6           2           1
Charge                                     I                0
Multiplicity                               I                1
Number of electrons                        I               10
Number of alpha electrons                  I                5
Number of beta electrons                   I                5
Number of basis functions                  I               41
Number of independent functions            I               41
Number of point charges in /Mol/           I                0
Number of translation vectors              I                0
Atomic numbers                             I   N=           3
           8           1           1
Nuclear charges                            R   N=           3
  8.00000000E+00  1.00000000E+00  1.00000000E+00
Current cartesian coordinates              R   N=           9
 -6.16297582E-33  0.00000000E+00  2.25073995E-01  0.00000000E+00  1.43715632E+00
 -9.00295981E-01 -1.76000889E-16 -1.43715632E+00 -9.00295981E-01
Force Field                                I                0
Int Atom Types                             I   N=           3
           0           0           0
MM charges                                 R   N=           3
  0.00000000E+00  0.00000000E+00  0.00000000E+00
Integer atomic weights                     I   N=           3
          16           1           1
Real atomic weights                        R   N=           3
  1.59949146E+01  1.00782504E+00  1.00782504E+00
Atom fragment info                         I   N=           3
           0           0           0
Atom residue num                           I   N=           3
           0           0           0
Nuclear spins                              I   N=           3
           0           1           1
Nuclear ZEff                               R   N=           3
 -5.60000000E+00 -1.00000000E+00 -1.00000000E+00
Nuclear ZNuc                               R   N=           3
  8.00000000E+00  1.00000000E+00  1.00000000E+00
Nuclear QMom                               R   N=           3
  0.00000000E+00  0.00000000E+00  0.00000000E+00
Nuclear GFac                               R   N=           3
  0.00000000E+00  2.79284600E+00  2.79284600E+00
MicOpt                                     I   N=           3
          -1          -1          -1
SymInf integers                            I   N=          26
           2           4           1           1           1          -1
          -1           1          -1           1           1           1
          -1           1           0           0           0           0
           0           0           0           0           0           0
           0           0
RotTr to input orientation                 R   N=          12
  3.10273021E-16 -1.00000000E+00 -3.56450713E-16 -6.16525320E-01 -4.71937325E-16
  7.87335081E-01 -7.87335081E-01 -2.45279446E-17 -6.16525320E-01  1.77208652E-01
  1.76000889E-17  1.38763817E-01
Number of contracted shells                I               19
Number of primitive shells                 I               37
Pure/Cartesian d shells                    I                0
Pure/Cartesian f shells                    I                0
Highest angular momentum                   I                2
Largest degree of contraction              I                7
Shell types                                I   N=          19
           0           0           0           0           1           1
           1          -2          -2           0           0           0
           1           1           0           0           0           1
           1
Number of primitives per shell             I   N=          19
           7           7           1           1           3           1
           1           1           1           3           1           1
           1           1           3           1           1           1
           1
Shell to atom map                          I   N=          19
           1           1           1           1           1           1
           1           1           1           2           2           2
           2           2           3           3           3           3
           3
Primitive exponents                        R   N=          37
  1.17200000E+04  1.75900000E+03  4.00800000E+02  1.13700000E+02  3.70300000E+01
  1.32700000E+01  5.02500000E+00  1.17200000E+04  4.00800000E+02  1.13700000E+02
  3.70300000E+01  1.32700000E+01  5.02500000E+00  1.01300000E+00  3.02300000E-01
  7.89600000E-02  1.77000000E+01  3.85400000E+00  1.04600000E+00  2.75300000E-01
  6.85600000E-02  1.18500000E+00  3.32000000E-01  1.30100000E+01  1.96200000E+00
  4.44600000E-01  1.22000000E-01  2.97400000E-02  7.27000000E-01  1.41000000E-01
  1.30100000E+01  1.96200000E+00  4.44600000E-01  1.22000000E-01  2.97400000E-02
  7.27000000E-01  1.41000000E-01
Contraction coefficients                   R   N=          37
  7.11864434E-04  5.48520199E-03  2.79099296E-02  1.05133208E-01  2.84002490E-01
  4.51673946E-01  2.73208126E-01  7.69030046E-06  3.13484579E-04 -2.96614853E-03
 -1.08753543E-02 -1.20753817E-01 -1.06275264E-01  1.09597548E+00  1.00000000E+00
  1.00000000E+00  6.26791663E-02  3.33536566E-01  7.41239642E-01  1.00000000E+00
  1.00000000E+00  1.00000000E+00  1.00000000E+00  3.34987264E-02  2.34800801E-01
  8.13682958E-01  1.00000000E+00  1.00000000E+00  1.00000000E+00  1.00000000E+00
  3.34987264E-02  2.34800801E-01  8.13682958E-01  1.00000000E+00  1.00000000E+00
  1.00000000E+00  1.00000000E+00
Coordinates of each shell                  R   N=          57
 -2.77425118E-33  6.24705829E-18  2.25073995E-01 -2.77425118E-33  6.24705829E-18
  2.25073995E-01 -2.77425118E-33  6.24705829E-18  2.25073995E-01 -2.77425118E-33
  6.24705829E-18  2.25073995E-01 -2.77425118E-33  6.24705829E-18  2.25073995E-01
 -2.77425118E-33  6.24705829E-18  2.25073995E-01 -2.77425118E-33  6.24705829E-18
  2.25073995E-01 -2.77425118E-33  6.24705829E-18  2.25073995E-01 -2.77425118E-33
  6.24705829E-18  2.25073995E-01  4.65256434E-32  1.43715632E+00 -9.00295981E-01
  4.65256434E-32  1.43715632E+00 -9.00295981E-01  4.65256434E-32  1.43715632E+00
 -9.00295981E-01  4.65256434E-32  1.43715632E+00 -9.00295981E-01  4.65256434E-32
  1.43715632E+00 -9.00295981E-01 -1.76000889E-16 -1.43715632E+00 -9.00295981E-01
 -1.76000889E-16 -1.43715632E+00 -9.00295981E-01 -1.76000889E-16 -1.43715632E+00
 -9.00295981E-01 -1.76000889E-16 -1.43715632E+00 -9.00295981E-01 -1.76000889E-16
 -1.43715632E+00 -9.00295981E-01
Constraint Structure                       R   N=           9
 -2.77425118E-33  6.24705829E-18  2.25073995E-01  4.65256434E-32  1.43715632E+00
 -9.00295981E-01 -1.76000889E-16 -1.43715632E+00 -9.00295981E-01
Num ILSW                                   I              100
ILSW                                       I   N=         100
           0           0           0           0           2           0
           0           0           0           0           0          -1
           0           0           0           0           2           0
           0           0           1           0           1           0
           1           0           0           0           0           0
           0           0      100000           0          -1           0
           0           0           0           0           0           0
           0           0           0           1           1           0
           0           0           1           0           0           0
           0           0           4          41           0           0
           0           0           0           0           0           0
           0           0           0           0           0           0
           0           0           0           0           0           0
           0           0           0           0           0           0
           0           0           0           0           0           0
           0           0           0           0           0           0
           0           0           0           0
Num RLSW                                   I               41
RLSW                                       R   N=          41
  1.00000000E+00  1.00000000E+00  1.00000000E+00  1.00000000E+00  1.00000000E+00
  0.00000000E+00  0.00000000E+00  1.00000000E+00  0.00000000E+00  0.00000000E+00
  0.00000000E+00  0.00000000E+00  1.00000000E+00  0.00000000E+00  0.00000000E+00
  0.00000000E+00  0.00000000E+00  1.00000000E+00  0.00000000E+00  0.00000000E+00
  0.00000000E+00  0.00000000E+00  1.00000000E+00  0.00000000E+00  0.00000000E+00
  0.00000000E+00  0.00000000E+00  1.00000000E+00  0.00000000E+00  0.00000000E+00
  0.00000000E+00  0.00000000E+00  1.00000000E+00  0.00000000E+00  0.00000000E+00
  0.00000000E+00  0.00000000E+00  0.00000000E+00  1.00000000E+00  1.00000000E+00
  0.00000000E+00
MxBond                                     I                2
NBond                                      I   N=           3
           2           1           1
IBond                                      I   N=           6
           2           3           1           0           1           0
RBond                                      R   N=           6
  1.00000000E+00  1.00000000E+00  1.00000000E+00  0.00000000E+00  1.00000000E+00
  0.00000000E+00
Virial Ratio                               R      2.001931898474509E+00
SCF Energy                                 R     -7.604076139148228E+01
MP2 Energy                                 R     -7.626090976494794E+01
Total Energy                               R     -7.626090976494794E+01
Post-SCF wavefunction norm                 R      1.455800055917702E+00
RMS Force                                  R      1.141302718999432E-06
RMS Density                                R      1.031695914040354E-09
Job Status                                 I                1
Nuclear derivative order                   I                2
External E-field                           R   N=          35
  0.00000000E+00  0.00000000E+00  0.00000000E+00  0.00000000E+00  0.00000000E+00
  0.00000000E+00  0.00000000E+00  0.00000000E+00  0.00000000E+00  0.00000000E+00
  0.00000000E+00  0.00000000E+00  0.00000000E+00  0.00000000E+00  0.00000000E+00
  0.00000000E+00  0.00000000E+00  0.00000000E+00  0.00000000E+00  0.00000000E+00
  0.00000000E+00  0.00000000E+00  0.00000000E+00  0.00000000E+00  0.00000000E+00
  0.00000000E+00  0.00000000E+00  0.00000000E+00  0.00000000E+00  0.00000000E+00
  0.00000000E+00  0.00000000E+00  0.00000000E+00  0.00000000E+00  0.00000000E+00
IOpCl                                      I                0
IROHF                                      I                0
Alpha Orbital Energies                     R   N=          41
 -2.05790101E+01 -1.35263476E+00 -7.13310954E-01 -5.85232586E-01 -5.08913232E-01
  3.52333473E-02  5.79394691E-02  1.74102617E-01  1.97176106E-01  2.22091440E-01
  2.31907659E-01  2.87950710E-01  3.31266832E-01  3.85520315E-01  4.01580891E-01
  4.31562364E-01  5.38555565E-01  6.46197350E-01  6.57907085E-01  8.06184037E-01
  9.29132867E-01  1.10252524E+00  1.11663137E+00  1.14806630E+00  1.30153545E+00
  1.46350808E+00  1.47975848E+00  1.58168134E+00  1.99852694E+00  2.00483977E+00
  2.10546440E+00  2.35722985E+00  2.46683847E+00  2.61029613E+00  2.71037421E+00
  2.96997330E+00  3.67298150E+00  3.68914140E+00  3.70082732E+00  4.01231743E+00
  4.29189455E+00
Alpha MO coefficients                      R   N=        1681
  9.97196325E-01  1.62715727E-02 -7.25016219E-03 -4.48461308E-03  0.00000000E+00
  0.00000000E+00 -1.63037941E-03  0.00000000E+00  0.00000000E+00  1.54887155E-03
  0.00000000E+00  0.00000000E+00  6.73100239E-04  2.30467389E-06  0.00000000E+00
  0.00000000E+00 -9.26460736E-05  0.00000000E+00  9.25050294E-06  0.00000000E+00
  0.00000000E+00  2.76142052E-04  0.00000000E+00  3.54718530E-04  3.57164595E-03
  3.17319063E-04  0.00000000E+00  3.35350279E-04 -2.78278655E-04  0.00000000E+00
 -1.18063215E-03  1.01681123E-03  3.54718530E-04  3.57164595E-03  3.17319063E-04
  0.00000000E+00 -3.35350279E-04 -2.78278655E-04  0.00000000E+00  1.18063215E-03
  1.01681123E-03 -2.08888532E-01  4.48758765E-01  3.81204176E-01  5.89823725E-02
  0.00000000E+00  0.00000000E+00 -7.73628412E-02  0.00000000E+00  0.00000000E+00
  1.70078900E-02  0.00000000E+00  0.00000000E+00 -1.15032566E-02  2.82275268E-03
  0.00000000E+00  0.00000000E+00 -6.64194948E-03  0.00000000E+00 -5.94190765E-03
  0.00000000E+00  0.00000000E+00  1.89401936E-02  0.00000000E+00  2.02466160E-01
 -2.62351519E-02 -2.05364298E-03  0.00000000E+00 -3.65660563E-02  2.23401006E-02
  0.00000000E+00  5.11210683E-03 -8.07227285E-03  2.02466160E-01 -2.62351519E-02
 -2.05364298E-03  0.00000000E+00  3.65660563E-02  2.23401006E-02  0.00000000E+00
 -5.11210683E-03 -8.07227285E-03  0.00000000E+00  0.00000000E+00  0.00000000E+00
  0.00000000E+00  0.00000000E+00  4.98906104E-01  0.00000000E+00  0.00000000E+00
  1.97968042E-01  0.00000000E+00  0.00000000E+00  1.96754166E-02  0.00000000E+00
  0.00000000E+00  0.00000000E+00 -2.84016096E-02  0.00000000E+00  0.00000000E+00
  0.00000000E+00  0.00000000E+00  3.01094615E-02  0.00000000E+00  0.00000000E+00
  3.46926850E-01  8.03093235E-02 -4.74292200E-03  0.00000000E+00 -2.57741069E-02
  3.47519923E-02  0.00000000E+00 -3.39259479E-03  9.81194034E-04 -3.46926850E-01
 -8.03093235E-02  4.74292200E-03  0.00000000E+00 -2.57741069E-02 -3.47519923E-02
  0.00000000E+00 -3.39259479E-03 -9.81194034E-04 -6.74260945E-02  1.51966335E-01
  3.16437128E-01  7.61934410E-02  0.00000000E+00  0.00000000E+00  5.47364358E-01
  0.00000000E+00  0.00000000E+00  3.23903817E-01  0.00000000E+00  0.00000000E+00
  3.88148636E-02 -1.45661900E-02  0.00000000E+00  0.00000000E+00  4.37946857E-03
  0.00000000E+00 -1.59700163E-02  0.00000000E+00  0.00000000E+00 -1.11822468E-02
  0.00000000E+00 -2.12571200E-01 -5.92314082E-02 -3.58064771E-03  0.00000000E+00
  3.08686203E-02 -1.29017654E-03  0.00000000E+00  2.01227890E-03  1.32970103E-02
 -2.12571200E-01 -5.92314082E-02 -3.58064771E-03  0.00000000E+00 -3.08686203E-02
 -1.29017654E-03  0.00000000E+00 -2.01227890E-03  1.32970103E-02  0.00000000E+00
  0.00000000E+00  0.00000000E+00  0.00000000E+00  6.28787881E-01  0.00000000E+00
  0.00000000E+00  4.50508744E-01  0.00000000E+00  0.00000000E+00  6.89254585E-02
  0.00000000E+00  0.00000000E+00  0.00000000E+00 -1.37973727E-02  0.00000000E+00
  0.00000000E+00  0.00000000E+00  0.00000000E+00 -1.93900263E-02  0.00000000E+00
  0.00000000E+00  0.00000000E+00  0.00000000E+00  0.00000000E+00  0.00000000E+00
  2.58338628E-02  0.00000000E+00  0.00000000E+00  1.59766808E-02  0.00000000E+00
  0.00000000E+00  0.00000000E+00  0.00000000E+00  0.00000000E+00  2.58338628E-02
  0.00000000E+00  0.00000000E+00  1.59766808E-02  0.00000000E+00  0.00000000E+00
 -2.79302128E-02  5.33356332E-02  2.18600055E-01  1.54643687E+00  0.00000000E+00
  0.00000000E+00 -6.10324810E-02  0.00000000E+00  0.00000000E+00 -1.33529792E-01
  0.00000000E+00  0.00000000E+00 -2.15795613E-01  2.59069854E-03  0.00000000E+00
  0.00000000E+00 -4.98612401E-05  0.00000000E+00 -1.41356474E-03  0.00000000E+00
  0.00000000E+00 -1.04314552E-02  0.00000000E+00 -1.96830186E-02 -4.73177739E-01
 -8.34073389E-01  0.00000000E+00 -4.65149225E-03  2.32968590E-03  0.00000000E+00
  8.19837757E-02 -7.71103816E-02 -1.96830186E-02 -4.73177739E-01 -8.34073389E-01
  0.00000000E+00  4.65149225E-03  2.32968590E-03  0.00000000E+00 -8.19837757E-02
 -7.71103816E-02  0.00000000E+00  0.00000000E+00  0.00000000E+00  0.00000000E+00
  0.00000000E+00 -6.71787561E-02  0.00000000E+00  0.00000000E+00 -1.37946466E-01
  0.00000000E+00  0.00000000E+00 -8.22347253E-01  0.00000000E+00  0.00000000E+00
  0.00000000E+00  9.69648671E-04  0.00000000E+00  0.00000000E+00  0.00000000E+00
  0.00000000E+00  1.90570501E-02  0.00000000E+00  0.00000000E+00 -5.54221543E-04
  5.39546242E-01  2.94880133E+00  0.00000000E+00  7.26397813E-04 -4.23041908E-03
  0.00000000E+00 -1.01756812E-01  1.27974399E-01  5.54221543E-04 -5.39546242E-01
 -2.94880133E+00  0.00000000E+00  7.26397813E-04  4.23041908E-03  0.00000000E+00
 -1.01756812E-01 -1.27974399E-01  7.57401787E-03 -8.35536300E-02  3.61679904E-01
  4.10200524E+00  0.00000000E+00  0.00000000E+00  1.79625209E-01  0.00000000E+00
  0.00000000E+00  8.56951292E-03  0.00000000E+00  0.00000000E+00 -1.91624231E+00
 -1.13033654E-02  0.00000000E+00  0.00000000E+00  3.12892351E-03  0.00000000E+00
  3.88809918E-02  0.00000000E+00  0.00000000E+00 -4.91691541E-02  0.00000000E+00
 -1.18493926E-02 -1.76607471E+00 -6.28373228E-01  0.00000000E+00  3.36184780E-02
 -2.39013196E-02  0.00000000E+00  3.32513052E-01 -1.62591063E-01 -1.18493926E-02
 -1.76607471E+00 -6.28373228E-01  0.00000000E+00 -3.36184780E-02 -2.39013196E-02
  0.00000000E+00 -3.32513052E-01 -1.62591063E-01  0.00000000E+00  0.00000000E+00
  0.00000000E+00  0.00000000E+00 -1.74854634E-01  0.00000000E+00  0.00000000E+00
 -2.50139406E-01  0.00000000E+00  0.00000000E+00  1.43734387E+00  0.00000000E+00
  0.00000000E+00  0.00000000E+00  1.70186370E-02  0.00000000E+00  0.00000000E+00
  0.00000000E+00  0.00000000E+00 -5.77798216E-02  0.00000000E+00  0.00000000E+00
  0.00000000E+00  0.00000000E+00  0.00000000E+00  0.00000000E+00  9.35854605E-03
  0.00000000E+00  0.00000000E+00 -2.78449412E-01  0.00000000E+00  0.00000000E+00
  0.00000000E+00  0.00000000E+00  0.00000000E+00  9.35854605E-03  0.00000000E+00
  0.00000000E+00 -2.78449412E-01  0.00000000E+00  0.00000000E+00  6.04100704E-02
 -1.82737437E-01 -1.81429965E-02  2.75322048E+00  0.00000000E+00  0.00000000E+00
  5.50765007E-02  0.00000000E+00  0.00000000E+00 -1.66754901E-01  0.00000000E+00
  0.00000000E+00  5.24133697E-01  7.50844799E-03  0.00000000E+00  0.00000000E+00
 -3.59042646E-03  0.00000000E+00 -4.19720189E-02  0.00000000E+00  0.00000000E+00
 -3.06740447E-02  0.00000000E+00  4.50613780E-02 -4.00118583E-01 -6.68345349E-01
  0.00000000E+00  1.90377155E-02 -1.09291826E-02  0.00000000E+00  4.21777660E-01
 -4.75708397E-01  4.50613780E-02 -4.00118583E-01 -6.68345349E-01  0.00000000E+00
 -1.90377155E-02 -1.09291826E-02  0.00000000E+00 -4.21777660E-01 -4.75708397E-01
  0.00000000E+00  0.00000000E+00  0.00000000E+00  0.00000000E+00  0.00000000E+00
 -1.69634793E-01  0.00000000E+00  0.00000000E+00  2.53843958E-01  0.00000000E+00
  0.00000000E+00  3.08919651E+00  0.00000000E+00  0.00000000E+00  0.00000000E+00
  9.02603683E-03  0.00000000E+00  0.00000000E+00  0.00000000E+00  0.00000000E+00
 -1.00382606E-01  0.00000000E+00  0.00000000E+00 -7.74789669E-02 -2.63476989E+00
 -2.67869452E+00  0.00000000E+00  3.86052920E-02 -2.23873635E-02  0.00000000E+00
  5.90253989E-01 -5.59919806E-01  7.74789669E-02  2.63476989E+00  2.67869452E+00
  0.00000000E+00  3.86052920E-02  2.23873635E-02  0.00000000E+00  5.90253989E-01
  5.59919806E-01  0.00000000E+00  0.00000000E+00  0.00000000E+00  0.00000000E+00
  0.00000000E+00 -2.25142390E-01  0.00000000E+00  0.00000000E+00 -2.71395755E-01
  0.00000000E+00  0.00000000E+00 -9.02751209E-01  0.00000000E+00  0.00000000E+00
  0.00000000E+00 -1.59904606E-02  0.00000000E+00  0.00000000E+00  0.00000000E+00
  0.00000000E+00  6.93159546E-02  0.00000000E+00  0.00000000E+00  1.30076731E-01
  9.73785481E-01 -3.05513126E-01  0.00000000E+00 -1.34730225E-02 -3.08174561E-04
  0.00000000E+00  4.29304171E-01 -4.72164651E-01 -1.30076731E-01 -9.73785481E-01
  3.05513126E-01  0.00000000E+00 -1.34730225E-02  3.08174561E-04  0.00000000E+00
  4.29304171E-01  4.72164651E-01 -8.97860214E-03 -8.69294042E-03  2.22564831E-01
  4.35237435E+00  0.00000000E+00  0.00000000E+00 -9.05728087E-02  0.00000000E+00
  0.00000000E+00 -2.40712762E-01  0.00000000E+00  0.00000000E+00 -5.99228848E-01
  2.47823928E-02  0.00000000E+00  0.00000000E+00  2.49490764E-02  0.00000000E+00
 -8.50980309E-02  0.00000000E+00  0.00000000E+00 -1.03609238E-01  0.00000000E+00
 -1.11860875E-01 -2.34862940E+00 -2.56606632E-01  0.00000000E+00  9.90272027E-03
 -2.91201131E-02  0.00000000E+00 -3.68289065E-01 -4.71464291E-01 -1.11860875E-01
 -2.34862940E+00 -2.56606632E-01  0.00000000E+00 -9.90272027E-03 -2.91201131E-02
  0.00000000E+00  3.68289065E-01 -4.71464291E-01  0.00000000E+00  0.00000000E+00
  0.00000000E+00  0.00000000E+00  0.00000000E+00  0.00000000E+00  0.00000000E+00
  0.00000000E+00  0.00000000E+00  0.00000000E+00  0.00000000E+00  0.00000000E+00
  0.00000000E+00  0.00000000E+00  0.00000000E+00  0.00000000E+00  0.00000000E+00
  3.90489458E-02  0.00000000E+00  0.00000000E+00  0.00000000E+00  0.00000000E+00
 -1.28292421E-01  0.00000000E+00  0.00000000E+00  0.00000000E+00  1.84503434E-03
  0.00000000E+00  0.00000000E+00  1.13585706E+00  0.00000000E+00  0.00000000E+00
  0.00000000E+00  0.00000000E+00  0.00000000E+00 -1.84503434E-03  0.00000000E+00
  0.00000000E+00 -1.13585706E+00  0.00000000E+00  0.00000000E+00  6.32385759E-03
 -1.59294180E-02 -1.92030813E-02  4.40268887E+00  0.00000000E+00  0.00000000E+00
 -1.88116859E-01  0.00000000E+00  0.00000000E+00 -7.70769030E-01  0.00000000E+00
  0.00000000E+00 -1.82331208E+00 -1.97495755E-02  0.00000000E+00  0.00000000E+00
 -9.83451004E-03  0.00000000E+00  1.03684901E-01  0.00000000E+00  0.00000000E+00
  1.94948396E-02  0.00000000E+00 -6.18432601E-02 -2.34045354E+00 -2.87250047E-01
  0.00000000E+00  4.81615428E-02 -4.90779005E-03  0.00000000E+00  3.51483953E-01
  6.86221693E-01 -6.18432601E-02 -2.34045354E+00 -2.87250047E-01  0.00000000E+00
 -4.81615428E-02 -4.90779005E-03  0.00000000E+00 -3.51483953E-01  6.86221693E-01
  0.00000000E+00  0.00000000E+00  0.00000000E+00  0.00000000E+00 -1.49390631E-01
  0.00000000E+00  0.00000000E+00 -6.45037834E-01  0.00000000E+00  0.00000000E+00
 -1.15904773E+00  0.00000000E+00  0.00000000E+00  0.00000000E+00 -2.35955724E-02
  0.00000000E+00  0.00000000E+00  0.00000000E+00  0.00000000E+00  7.25754942E-02
  0.00000000E+00  0.00000000E+00  0.00000000E+00  0.00000000E+00  0.00000000E+00
  0.00000000E+00  1.02748184E-03  0.00000000E+00  0.00000000E+00  1.19087736E+00
  0.00000000E+00  0.00000000E+00  0.00000000E+00  0.00000000E+00  0.00000000E+00
  1.02748184E-03  0.00000000E+00  0.00000000E+00  1.19087736E+00  0.00000000E+00
  0.00000000E+00  0.00000000E+00  0.00000000E+00  0.00000000E+00  0.00000000E+00
  0.00000000E+00 -7.91366372E-02  0.00000000E+00  0.00000000E+00 -1.30903826E-01
  0.00000000E+00  0.00000000E+00 -1.91913617E+00  0.00000000E+00  0.00000000E+00
  0.00000000E+00  1.73148697E-02  0.00000000E+00  0.00000000E+00  0.00000000E+00
  0.00000000E+00 -4.11718707E-02  0.00000000E+00  0.00000000E+00 -3.22490019E-02
 -1.44014036E+00  7.45481175E-01  0.00000000E+00 -2.25942589E-02 -2.38406951E-02
  0.00000000E+00  2.30644880E+00  1.04325461E+00  3.22490019E-02  1.44014036E+00
 -7.45481175E-01  0.00000000E+00 -2.25942589E-02  2.38406951E-02  0.00000000E+00
  2.30644880E+00 -1.04325461E+00 -1.17454289E-01  3.14771515E-02  2.77543322E+00
  5.80841062E+00  0.00000000E+00  0.00000000E+00 -2.02068571E-01  0.00000000E+00
  0.00000000E+00 -6.11345373E-01  0.00000000E+00  0.00000000E+00 -6.92036700E-01
  9.40839692E-03  0.00000000E+00  0.00000000E+00 -7.64048269E-03  0.00000000E+00
 -3.32784265E-03  0.00000000E+00  0.00000000E+00  4.89715948E-02  0.00000000E+00
 -1.53176900E-01 -3.42554734E+00 -5.56406913E-01  0.00000000E+00 -8.03839274E-03
 -1.19890240E-03  0.00000000E+00  1.32763787E+00 -1.16392781E+00 -1.53176900E-01
 -3.42554734E+00 -5.56406913E-01  0.00000000E+00  8.03839274E-03 -1.19890240E-03
  0.00000000E+00 -1.32763787E+00 -1.16392781E+00  0.00000000E+00  0.00000000E+00
  0.00000000E+00  0.00000000E+00  0.00000000E+00 -2.74770047E-01  0.00000000E+00
  0.00000000E+00 -1.78913572E+00  0.00000000E+00  0.00000000E+00 -2.46190819E+00
  0.00000000E+00  0.00000000E+00  0.00000000E+00  2.38699226E-02  0.00000000E+00
  0.00000000E+00  0.00000000E+00  0.00000000E+00  1.03087329E-01  0.00000000E+00
  0.00000000E+00  1.21282667E-01  8.29794628E+00  1.40426968E+00  0.00000000E+00
 -2.41214482E-02  4.17718737E-02  0.00000000E+00 -3.16818476E+00  1.69109759E+00
 -1.21282667E-01 -8.29794628E+00 -1.40426968E+00  0.00000000E+00 -2.41214482E-02
 -4.17718737E-02  0.00000000E+00 -3.16818476E+00 -1.69109759E+00  0.00000000E+00
  0.00000000E+00  0.00000000E+00  0.00000000E+00  0.00000000E+00  2.59869792E-01
  0.00000000E+00  0.00000000E+00 -4.15681336E-01  0.00000000E+00  0.00000000E+00
 -1.24550654E+00  0.00000000E+00  0.00000000E+00  0.00000000E+00  5.70821247E-02
  0.00000000E+00  0.00000000E+00  0.00000000E+00  0.00000000E+00  7.07898981E-01
  0.00000000E+00  0.00000000E+00 -4.24788985E-01  3.04313930E+00  2.18522946E-01
  0.00000000E+00 -1.28878509E-01  1.60166493E-01  0.00000000E+00 -5.42571500E-01
 -1.99978440E-02  4.24788985E-01 -3.04313930E+00 -2.18522946E-01  0.00000000E+00
 -1.28878509E-01 -1.60166493E-01  0.00000000E+00 -5.42571500E-01  1.99978440E-02
  2.19068888E-03 -2.00409231E-01  1.08290136E+00  4.78171910E+00  0.00000000E+00
  0.00000000E+00  8.26987171E-02  0.00000000E+00  0.00000000E+00 -2.79515959E-01
  0.00000000E+00  0.00000000E+00 -1.23891122E+00  5.13063397E-04  0.00000000E+00
  0.00000000E+00 -3.81115408E-02  0.00000000E+00  1.15150149E-01  0.00000000E+00
  0.00000000E+00 -7.38386563E-01  0.00000000E+00  4.99769416E-01 -3.28571570E+00
 -2.05061814E-01  0.00000000E+00  1.81871554E-01 -9.15481881E-02  0.00000000E+00
  1.82833958E-01 -3.16164118E-01  4.99769416E-01 -3.28571570E+00 -2.05061814E-01
  0.00000000E+00 -1.81871554E-01 -9.15481881E-02  0.00000000E+00 -1.82833958E-01
 -3.16164118E-01  0.00000000E+00  0.00000000E+00  0.00000000E+00  0.00000000E+00
 -1.89722526E-01  0.00000000E+00  0.00000000E+00 -3.02895130E-02  0.00000000E+00
  0.00000000E+00 -7.25272377E-01  0.00000000E+00  0.00000000E+00  0.00000000E+00
 -2.11389909E-02  0.00000000E+00  0.00000000E+00  0.00000000E+00  0.00000000E+00
  1.12462555E+00  0.00000000E+00  0.00000000E+00  0.00000000E+00  0.00000000E+00
  0.00000000E+00  0.00000000E+00 -1.76554693E-02  0.00000000E+00  0.00000000E+00
  5.82403869E-01  0.00000000E+00  0.00000000E+00  0.00000000E+00  0.00000000E+00
  0.00000000E+00 -1.76554693E-02  0.00000000E+00  0.00000000E+00  5.82403869E-01
  0.00000000E+00  0.00000000E+00  1.53730713E-02 -1.80566458E-02 -5.58076495E-01
 -8.75055642E-01  0.00000000E+00  0.00000000E+00 -1.29134191E-01  0.00000000E+00
  0.00000000E+00  9.18397346E-02  0.00000000E+00  0.00000000E+00 -4.86354317E-01
 -1.78724408E-02  0.00000000E+00  0.00000000E+00  2.01637096E-02  0.00000000E+00
  1.14104968E+00  0.00000000E+00  0.00000000E+00  7.91147789E-02  0.00000000E+00
 -1.03307473E-01  6.34443405E-01  5.65694264E-02  0.00000000E+00 -9.14536649E-02
 -2.52528346E-03  0.00000000E+00  7.74341362E-02  6.63644793E-01 -1.03307473E-01
  6.34443405E-01  5.65694264E-02  0.00000000E+00  9.14536649E-02 -2.52528346E-03
  0.00000000E+00 -7.74341362E-02  6.63644793E-01  0.00000000E+00  0.00000000E+00
  0.00000000E+00  0.00000000E+00  0.00000000E+00  0.00000000E+00  0.00000000E+00
  0.00000000E+00  0.00000000E+00  0.00000000E+00  0.00000000E+00  0.00000000E+00
  0.00000000E+00  0.00000000E+00  0.00000000E+00  0.00000000E+00  0.00000000E+00
 -1.83003349E-02  0.00000000E+00  0.00000000E+00  0.00000000E+00  0.00000000E+00
  1.23290749E+00  0.00000000E+00  0.00000000E+00  0.00000000E+00  3.77237166E-02
  0.00000000E+00  0.00000000E+00 -7.30533876E-01  0.00000000E+00  0.00000000E+00
  0.00000000E+00  0.00000000E+00  0.00000000E+00 -3.77237166E-02  0.00000000E+00
  0.00000000E+00  7.30533876E-01  0.00000000E+00  0.00000000E+00 -9.60940723E-03
 -2.14130832E-01  1.57361943E+00  3.20387113E+00  0.00000000E+00  0.00000000E+00
  5.26819673E-01  0.00000000E+00  0.00000000E+00 -1.12967617E+00  0.00000000E+00
  0.00000000E+00 -7.11568308E-01  6.73639637E-03  0.00000000E+00  0.00000000E+00
 -9.38305144E-02  0.00000000E+00  3.17065902E-01  0.00000000E+00  0.00000000E+00
  7.99074745E-01  0.00000000E+00  5.00030387E-01 -2.41911751E+00 -1.48904912E-01
  0.00000000E+00  3.26714550E-01 -1.85824804E-01  0.00000000E+00  6.56881761E-01
 -1.13141460E-01  5.00030387E-01 -2.41911751E+00 -1.48904912E-01  0.00000000E+00
 -3.26714550E-01 -1.85824804E-01  0.00000000E+00 -6.56881761E-01 -1.13141460E-01
  0.00000000E+00  0.00000000E+00  0.00000000E+00  0.00000000E+00  0.00000000E+00
  5.93703130E-01  0.00000000E+00  0.00000000E+00 -1.93800604E+00  0.00000000E+00
  0.00000000E+00 -9.92566291E-01  0.00000000E+00  0.00000000E+00  0.00000000E+00
  1.11435716E-01  0.00000000E+00  0.00000000E+00  0.00000000E+00  0.00000000E+00
 -7.66825498E-01  0.00000000E+00  0.00000000E+00 -3.53341900E-01  4.32156865E+00
  2.19747799E-01  0.00000000E+00 -2.77990260E-01  2.99804691E-01  0.00000000E+00
 -1.21754249E+00  1.03455033E+00  3.53341900E-01 -4.32156865E+00 -2.19747799E-01
  0.00000000E+00 -2.77990260E-01 -2.99804691E-01  0.00000000E+00 -1.21754249E+00
 -1.03455033E+00  0.00000000E+00  0.00000000E+00  0.00000000E+00  0.00000000E+00
 -9.82195751E-01  0.00000000E+00  0.00000000E+00  1.59851284E+00  0.00000000E+00
  0.00000000E+00  1.08935638E-01  0.00000000E+00  0.00000000E+00  0.00000000E+00
 -1.94935654E-03  0.00000000E+00  0.00000000E+00  0.00000000E+00  0.00000000E+00
 -3.90392771E-01  0.00000000E+00  0.00000000E+00  0.00000000E+00  0.00000000E+00
  0.00000000E+00  0.00000000E+00 -6.55424642E-03  0.00000000E+00  0.00000000E+00
 -5.51511949E-01  0.00000000E+00  0.00000000E+00  0.00000000E+00  0.00000000E+00
  0.00000000E+00 -6.55424642E-03  0.00000000E+00  0.00000000E+00 -5.51511949E-01
  0.00000000E+00  0.00000000E+00  5.39930330E-02 -5.14389125E-01  2.70887901E-01
 -1.63270467E+00  0.00000000E+00  0.00000000E+00 -7.09167781E-01  0.00000000E+00