 Entering Gaussian System, Link 0=g09
 Input=h2oFreq.com
 Output=h2oFreq.log
 Initial command:
 /usr/local/gaussian/g09/l1.exe "/scratch/Gau-15273.inp" -scrdir="/scratch/"
 Entering Link 1 = /usr/local/gaussian/g09/l1.exe PID=     15274.
  
 Copyright (c) 1988,1990,1992,1993,1995,1998,2003,2009,2015,
            Gaussian, Inc.  All Rights Reserved.
  
 This is part of the Gaussian(R) 09 program.  It is based on
 the Gaussian(R) 03 system (copyright 2003, Gaussian, Inc.),
 the Gaussian(R) 98 system (copyright 1998, Gaussian, Inc.),
 the Gaussian(R) 94 system (copyright 1995, Gaussian, Inc.),
 the Gaussian 92(TM) system (copyright 1992, Gaussian, Inc.),
 the Gaussian 90(TM) system (copyright 1990, Gaussian, Inc.),
 the Gaussian 88(TM) system (copyright 1988, Gaussian, Inc.),
 the Gaussian 86(TM) system (copyright 1986, Carnegie Mellon
 University), and the Gaussian 82(TM) system (copyright 1983,
 Carnegie Mellon University). Gaussian is a federally registered
 trademark of Gaussian, Inc.
  
 This software contains proprietary and confidential information,
 including trade secrets, belonging to Gaussian, Inc.
  
 This software is provided under written license and may be
 used, copied, transmitted, or stored only in accord with that
 written license.
  
 The following legend is applicable only to US Government
 contracts under FAR:
  
                    RESTRICTED RIGHTS LEGEND
  
 Use, reproduction and disclosure by the US Government is
 subject to restrictions as set forth in subparagraphs (a)
 and (c) of the Commercial Computer Software - Restricted
 Rights clause in FAR 52.227-19.
  
 Gaussian, Inc.
 340 Quinnipiac St., Bldg. 40, Wallingford CT 06492
  
  
 ---------------------------------------------------------------
 Warning -- This program may not be used in any manner that
 competes with the business of Gaussian, Inc. or will provide
 assistance to any competitor of Gaussian, Inc.  The licensee
 of this program is prohibited from giving any competitor of
 Gaussian, Inc. access to this program.  By using this program,
 the user acknowledges that Gaussian, Inc. is engaged in the
 business of creating and licensing software in the field of
 computational chemistry and represents and warrants to the
 licensee that it is not a competitor of Gaussian, Inc. and that
 it will not use this program in any manner prohibited above.
 ---------------------------------------------------------------
  

 Cite this work as:
 Gaussian 09, Revision E.01,
 M. J. Frisch, G. W. Trucks, H. B. Schlegel, G. E. Scuseria, 
 M. A. Robb, J. R. Cheeseman, G. Scalmani, V. Barone, B. Mennucci, 
 G. A. Petersson, H. Nakatsuji, M. Caricato, X. Li, H. P. Hratchian, 
 A. F. Izmaylov, J. Bloino, G. Zheng, J. L. Sonnenberg, M. Hada, 
 M. Ehara, K. Toyota, R. Fukuda, J. Hasegawa, M. Ishida, T. Nakajima, 
 Y. Honda, O. Kitao, H. Nakai, T. Vreven, J. A. Montgomery, Jr., 
 J. E. Peralta, F. Ogliaro, M. Bearpark, J. J. Heyd, E. Brothers, 
 K. N. Kudin, V. N. Staroverov, T. Keith, R. Kobayashi, J. Normand, 
 K. Raghavachari, A. Rendell, J. C. Burant, S. S. Iyengar, J. Tomasi, 
 M. Cossi, N. Rega, J. M. Millam, M. Klene, J. E. Knox, J. B. Cross, 
 V. Bakken, C. Adamo, J. Jaramillo, R. Gomperts, R. E. Stratmann, 
 O. Yazyev, A. J. Austin, R. Cammi, C. Pomelli, J. W. Ochterski, 
 R. L. Martin, K. Morokuma, V. G. Zakrzewski, G. A. Voth, 
 P. Salvador, J. J. Dannenberg, S. Dapprich, A. D. Daniels, 
 O. Farkas, J. B. Foresman, J. V. Ortiz, J. Cioslowski, 
 and D. J. Fox, Gaussian, Inc., Wallingford CT, 2013.
 
 ******************************************
 Gaussian 09:  ES64L-G09RevE.01 30-Nov-2015
                 7-Nov-2019 
 ******************************************
 %nproc=20
 Will use up to   20 processors via shared memory.
 %mem=10000MB
 ------------------------------------
 #p mp2/aug-cc-pvdz opt=z-matrix freq
 ------------------------------------
 1/10=7,18=40,38=1/1,3;
 2/12=2,17=6,18=5,29=3,40=1/2;
 3/5=16,7=10,11=9,16=1,25=1,30=1,71=1/1,2,3;
 4//1;
 5/5=2,38=5/2;
 8/6=4,10=1/1;
 9/15=2,16=-3/6;
 10/5=1/2;
 6/7=2,8=2,9=2,10=2/1;
 7/12=2,29=1/1,2,3,16;
 1/10=7,18=40/3(2);
 2/29=3/2;
 99//99;
 2/29=3/2;
 3/5=16,7=10,11=9,16=1,25=1,30=1,71=1/1,2,3;
 4/5=5,16=3,69=1/1;
 5/5=2,38=5/2;
 8/6=4,10=1/1;
 9/15=2,16=-3/6;
 10/5=1/2;
 7/12=2/1,2,3,16;
 1/18=40/3(-8);
 2/29=3/2;
 6/7=2,8=2,9=2,10=2/1;
 99//99;
 Leave Link    1 at Thu Nov  7 22:50:13 2019, MaxMem=  1310720000 cpu:         1.2
 (Enter /usr/local/gaussian/g09/l101.exe)
 ---
 h2o
 ---
 Symbolic Z-matrix:
 Charge =  0 Multiplicity = 1
 H
 O                    1    R1
 H                    1    R1p      2    A1
       Variables:
  R1                    1.                       
  R1p                   2.                       
  A1                  120.                       
 
 NAtoms=      3 NQM=        3 NQMF=       0 NMMI=      0 NMMIF=      0
                NMic=       0 NMicF=      0.
                    Isotopes and Nuclear Properties:
 (Nuclear quadrupole moments (NQMom) in fm**2, nuclear magnetic moments (NMagM)
  in nuclear magnetons)

  Atom         1           2           3
 IAtWgt=           1          16           1
 AtmWgt=   1.0078250  15.9949146   1.0078250
 NucSpn=           1           0           1
 AtZEff=   0.0000000   0.0000000   0.0000000
 NQMom=    0.0000000   0.0000000   0.0000000
 NMagM=    2.7928460   0.0000000   2.7928460
 AtZNuc=   1.0000000   8.0000000   1.0000000
 Leave Link  101 at Thu Nov  7 22:50:13 2019, MaxMem=  1310720000 cpu:         2.3
 (Enter /usr/local/gaussian/g09/l103.exe)

 GradGradGradGradGradGradGradGradGradGradGradGradGradGradGradGradGradGrad
 Berny optimization.
 Initialization pass.
                       ----------------------------
                       !    Initial Parameters    !
                       ! (Angstroms and Degrees)  !
 ----------------------                            ----------------------
 !      Name          Value   Derivative information (Atomic Units)     !
 ------------------------------------------------------------------------
 !       R1          1.0      estimate D2E/DX2                          !
 !       R1p         2.0      estimate D2E/DX2                          !
 !       A1        120.0      estimate D2E/DX2                          !
 ------------------------------------------------------------------------
 Trust Radius=3.00D-01 FncErr=1.00D-07 GrdErr=1.00D-07
 Number of steps in this run=     20 maximum allowed number of steps=    100.
 GradGradGradGradGradGradGradGradGradGradGradGradGradGradGradGradGradGrad

 Leave Link  103 at Thu Nov  7 22:50:13 2019, MaxMem=  1310720000 cpu:         0.3
 (Enter /usr/local/gaussian/g09/l202.exe)
 ---------------------------------------------------------------------------------------------------
                            Z-MATRIX (ANGSTROMS AND DEGREES)
   CD    Cent   Atom    N1       Length/X        N2       Alpha/Y        N3        Beta/Z          J
 ---------------------------------------------------------------------------------------------------
      1      1  H 
      2      2  O        1   1.000000(     1)
      3      3  H        1   2.000000(     2)      2  120.000(     3)
 ---------------------------------------------------------------------------------------------------
                         Z-Matrix orientation:                         
 ---------------------------------------------------------------------
 Center     Atomic      Atomic             Coordinates (Angstroms)
 Number     Number       Type             X           Y           Z
 ---------------------------------------------------------------------
      1          1           0        0.000000    0.000000    0.000000
      2          8           0        0.000000    0.000000    1.000000
      3          1           0        1.732051    0.000000   -1.000000
 ---------------------------------------------------------------------
                    Distance matrix (angstroms):
                    1          2          3
     1  H    0.000000
     2  O    1.000000   0.000000
     3  H    2.000000   2.645751   0.000000
 Stoichiometry    H2O
 Framework group  CS[SG(H2O)]
 Deg. of freedom     3
 Full point group                 CS      NOp   2
 Largest Abelian subgroup         CS      NOp   2
 Largest concise Abelian subgroup C1      NOp   1
                         Standard orientation:                         
 ---------------------------------------------------------------------
 Center     Atomic      Atomic             Coordinates (Angstroms)
 Number     Number       Type             X           Y           Z
 ---------------------------------------------------------------------
      1          1           0        0.500000   -0.519615   -0.000000
      2          8           0        0.000000    0.346410    0.000000
      3          1           0       -0.500000   -2.251666   -0.000000
 ---------------------------------------------------------------------
 Rotational constants (GHZ):   1307.1369244     72.2049832     68.4252390
 Leave Link  202 at Thu Nov  7 22:50:13 2019, MaxMem=  1310720000 cpu:         0.1
 (Enter /usr/local/gaussian/g09/l301.exe)
 Standard basis: Aug-CC-pVDZ (5D, 7F)
 Ernie: Thresh=  0.10000D-02 Tol=  0.10000D-05 Strict=F.
 Ernie:  2 primitive shells out of 39 were deleted.
 There are    32 symmetry adapted cartesian basis functions of A'  symmetry.
 There are    11 symmetry adapted cartesian basis functions of A"  symmetry.
 There are    30 symmetry adapted basis functions of A'  symmetry.
 There are    11 symmetry adapted basis functions of A"  symmetry.
    41 basis functions,    65 primitive gaussians,    43 cartesian basis functions
     5 alpha electrons        5 beta electrons
       nuclear repulsion energy         6.0980877512 Hartrees.
 IExCor=    0 DFT=F Ex=HF Corr=None ExCW=0 ScaHFX=  1.000000
 ScaDFX=  1.000000  1.000000  1.000000  1.000000 ScalE2=  1.000000  1.000000
 IRadAn=      0 IRanWt=     -1 IRanGd=            0 ICorTp=0 IEmpDi=  4
 NAtoms=    3 NActive=    3 NUniq=    3 SFac= 1.00D+00 NAtFMM=   60 NAOKFM=F Big=F
 Integral buffers will be    131072 words long.
 Raffenetti 1 integral format.
 Two-electron integral symmetry is turned on.
 Leave Link  301 at Thu Nov  7 22:50:13 2019, MaxMem=  1310720000 cpu:         1.0
 (Enter /usr/local/gaussian/g09/l302.exe)
 NPDir=0 NMtPBC=     1 NCelOv=     1 NCel=       1 NClECP=     1 NCelD=      1
         NCelK=      1 NCelE2=     1 NClLst=     1 CellRange=     0.0.
 One-electron integrals computed using PRISM.
 NBasis=    41 RedAO= T EigKep=  4.91D-03  NBF=    30    11
 NBsUse=    41 1.00D-06 EigRej= -1.00D+00 NBFU=    30    11
 Leave Link  302 at Thu Nov  7 22:50:13 2019, MaxMem=  1310720000 cpu:         3.6
 (Enter /usr/local/gaussian/g09/l303.exe)
 DipDrv:  MaxL=1.
 Leave Link  303 at Thu Nov  7 22:50:13 2019, MaxMem=  1310720000 cpu:         0.7
 (Enter /usr/local/gaussian/g09/l401.exe)
 ExpMin= 2.97D-02 ExpMax= 1.17D+04 ExpMxC= 4.01D+02 IAcc=3 IRadAn=         5 AccDes= 0.00D+00
 Harris functional with IExCor=  205 and IRadAn=       5 diagonalized for initial guess.
 HarFok:  IExCor=  205 AccDes= 0.00D+00 IRadAn=         5 IDoV= 1 UseB2=F ITyADJ=14
 ICtDFT=  3500011 ScaDFX=  1.000000  1.000000  1.000000  1.000000
 FoFCou: FMM=F IPFlag=           0 FMFlag=      100000 FMFlg1=           0
         NFxFlg=           0 DoJE=T BraDBF=F KetDBF=T FulRan=T
         wScrn=  0.000000 ICntrl=     500 IOpCl=  0 I1Cent=   200000004 NGrid=           0
         NMat0=    1 NMatS0=      1 NMatT0=    0 NMatD0=    1 NMtDS0=    0 NMtDT0=    0
 Petite list used in FoFCou.
 Harris En= -75.9472723136875    
 JPrj=0 DoOrth=F DoCkMO=F.
 Initial guess orbital symmetries:
       Occupied  (A') (A') (A') (A') (A")
       Virtual   (A') (A') (A') (A') (A") (A') (A') (A') (A") (A')
                 (A') (A") (A') (A') (A') (A') (A") (A') (A") (A')
                 (A') (A") (A') (A') (A") (A') (A') (A") (A') (A')
                 (A') (A") (A') (A") (A') (A')
 The electronic state of the initial guess is 1-A'.
 Leave Link  401 at Thu Nov  7 22:50:14 2019, MaxMem=  1310720000 cpu:         3.9
 (Enter /usr/local/gaussian/g09/l502.exe)
 Closed shell SCF:
 Using DIIS extrapolation, IDIIS=  1040.
 Integral symmetry usage will be decided dynamically.
 Keep R1 ints in memory in symmetry-blocked form, NReq=1235158.
 IVT=       25304 IEndB=       25304 NGot=  1310720000 MDV=  1310496581
 LenX=  1310496581 LenY=  1310494291
 Requested convergence on RMS density matrix=1.00D-08 within 128 cycles.
 Requested convergence on MAX density matrix=1.00D-06.
 Requested convergence on             energy=1.00D-06.
 No special actions if energy rises.
 FoFCou: FMM=F IPFlag=           0 FMFlag=           0 FMFlg1=           0
         NFxFlg=           0 DoJE=F BraDBF=F KetDBF=F FulRan=T
         wScrn=  0.000000 ICntrl=     600 IOpCl=  0 I1Cent=           0 NGrid=           0
         NMat0=    1 NMatS0=    861 NMatT0=    0 NMatD0=    1 NMtDS0=    0 NMtDT0=    0
 Petite list used in FoFCou.

 Cycle   1  Pass 1  IDiag  1:
 E= -75.4010735637183    
 DIIS: error= 7.39D-02 at cycle   1 NSaved=   1.
 NSaved= 1 IEnMin= 1 EnMin= -75.4010735637183     IErMin= 1 ErrMin= 7.39D-02
 ErrMax= 7.39D-02  0.00D+00 EMaxC= 1.00D-01 BMatC= 2.35D-01 BMatP= 2.35D-01
 IDIUse=3 WtCom= 2.61D-01 WtEn= 7.39D-01
 Coeff-Com:  0.100D+01
 Coeff-En:   0.100D+01
 Coeff:      0.100D+01
 Gap=     0.250 Goal=   None    Shift=    0.000
 GapD=    0.250 DampG=1.000 DampE=0.500 DampFc=0.5000 IDamp=-1.
 Damping current iteration by 5.00D-01
 RMSDP=2.34D-02 MaxDP=3.66D-01              OVMax= 3.24D-01

 Cycle   2  Pass 1  IDiag  1:
 E= -75.4090820139004     Delta-E=       -0.008008450182 Rises=F Damp=T
 DIIS: error= 5.21D-02 at cycle   2 NSaved=   2.
 NSaved= 2 IEnMin= 2 EnMin= -75.4090820139004     IErMin= 2 ErrMin= 5.21D-02
 ErrMax= 5.21D-02  0.00D+00 EMaxC= 1.00D-01 BMatC= 6.98D-02 BMatP= 2.35D-01
 IDIUse=3 WtCom= 4.79D-01 WtEn= 5.21D-01
 Coeff-Com:  0.318D+00 0.682D+00
 Coeff-En:   0.490D+00 0.510D+00
 Coeff:      0.408D+00 0.592D+00
 Gap=     0.150 Goal=   None    Shift=    0.000
 RMSDP=7.99D-03 MaxDP=8.91D-02 DE=-8.01D-03 OVMax= 6.98D-01

 Cycle   3  Pass 1  IDiag  1:
 E= -75.6952662581365     Delta-E=       -0.286184244236 Rises=F Damp=F
 DIIS: error= 2.01D-02 at cycle   3 NSaved=   3.
 NSaved= 3 IEnMin= 3 EnMin= -75.6952662581365     IErMin= 3 ErrMin= 2.01D-02
 ErrMax= 2.01D-02  0.00D+00 EMaxC= 1.00D-01 BMatC= 9.22D-03 BMatP= 6.98D-02
 IDIUse=3 WtCom= 7.99D-01 WtEn= 2.01D-01
 Coeff-Com:  0.950D-01-0.248D+00 0.115D+01
 Coeff-En:   0.000D+00 0.000D+00 0.100D+01
 Coeff:      0.759D-01-0.198D+00 0.112D+01
 Gap=     0.250 Goal=   None    Shift=    0.000
 RMSDP=2.54D-03 MaxDP=3.10D-02 DE=-2.86D-01 OVMax= 1.03D-01

 Cycle   4  Pass 1  IDiag  1:
 E= -75.7041084140806     Delta-E=       -0.008842155944 Rises=F Damp=F
 DIIS: error= 1.86D-02 at cycle   4 NSaved=   4.
 NSaved= 4 IEnMin= 4 EnMin= -75.7041084140806     IErMin= 4 ErrMin= 1.86D-02
 ErrMax= 1.86D-02  0.00D+00 EMaxC= 1.00D-01 BMatC= 8.61D-03 BMatP= 9.22D-03
 IDIUse=3 WtCom= 8.14D-01 WtEn= 1.86D-01
 Coeff-Com:  0.102D+00-0.227D+00 0.396D+00 0.730D+00
 Coeff-En:   0.000D+00 0.000D+00 0.000D+00 0.100D+01
 Coeff:      0.829D-01-0.185D+00 0.322D+00 0.780D+00
 Gap=     0.264 Goal=   None    Shift=    0.000
 RMSDP=1.16D-03 MaxDP=1.54D-02 DE=-8.84D-03 OVMax= 2.24D-02

 Cycle   5  Pass 1  IDiag  1:
 E= -75.7120413478361     Delta-E=       -0.007932933755 Rises=F Damp=F
 DIIS: error= 8.40D-03 at cycle   5 NSaved=   5.
 NSaved= 5 IEnMin= 5 EnMin= -75.7120413478361     IErMin= 5 ErrMin= 8.40D-03
 ErrMax= 8.40D-03  0.00D+00 EMaxC= 1.00D-01 BMatC= 1.78D-03 BMatP= 8.61D-03
 IDIUse=3 WtCom= 9.16D-01 WtEn= 8.40D-02
 Coeff-Com: -0.878D-02 0.184D-01-0.247D-01-0.920D+00 0.194D+01
 Coeff-En:   0.000D+00 0.000D+00 0.000D+00 0.000D+00 0.100D+01
 Coeff:     -0.804D-02 0.168D-01-0.226D-01-0.843D+00 0.186D+01
 Gap=     0.256 Goal=   None    Shift=    0.000
 RMSDP=1.30D-03 MaxDP=1.46D-02 DE=-7.93D-03 OVMax= 2.67D-02

 Cycle   6  Pass 1  IDiag  1:
 E= -75.7147303246415     Delta-E=       -0.002688976805 Rises=F Damp=F
 DIIS: error= 8.50D-04 at cycle   6 NSaved=   6.
 NSaved= 6 IEnMin= 6 EnMin= -75.7147303246415     IErMin= 6 ErrMin= 8.50D-04
 ErrMax= 8.50D-04  0.00D+00 EMaxC= 1.00D-01 BMatC= 3.45D-05 BMatP= 1.78D-03
 IDIUse=3 WtCom= 9.91D-01 WtEn= 8.50D-03
 Coeff-Com: -0.101D-02-0.350D-02-0.545D-01 0.755D+00-0.145D+01 0.175D+01
 Coeff-En:   0.000D+00 0.000D+00 0.000D+00 0.000D+00 0.000D+00 0.100D+01
 Coeff:     -0.998D-03-0.347D-02-0.540D-01 0.749D+00-0.143D+01 0.174D+01
 Gap=     0.259 Goal=   None    Shift=    0.000
 RMSDP=3.91D-04 MaxDP=4.84D-03 DE=-2.69D-03 OVMax= 1.61D-02

 Cycle   7  Pass 1  IDiag  1:
 E= -75.7148946793293     Delta-E=       -0.000164354688 Rises=F Damp=F
 DIIS: error= 2.80D-04 at cycle   7 NSaved=   7.
 NSaved= 7 IEnMin= 7 EnMin= -75.7148946793293     IErMin= 7 ErrMin= 2.80D-04
 ErrMax= 2.80D-04  0.00D+00 EMaxC= 1.00D-01 BMatC= 4.08D-06 BMatP= 3.45D-05
 IDIUse=3 WtCom= 9.97D-01 WtEn= 2.80D-03
 Coeff-Com:  0.136D-02-0.161D-02 0.218D-02 0.948D-02-0.539D-01-0.248D-01
 Coeff-Com:  0.107D+01
 Coeff-En:   0.000D+00 0.000D+00 0.000D+00 0.000D+00 0.000D+00 0.000D+00
 Coeff-En:   0.100D+01
 Coeff:      0.135D-02-0.160D-02 0.218D-02 0.946D-02-0.537D-01-0.248D-01
 Coeff:      0.107D+01
 Gap=     0.258 Goal=   None    Shift=    0.000
 RMSDP=7.17D-05 MaxDP=8.26D-04 DE=-1.64D-04 OVMax= 2.26D-03

 Cycle   8  Pass 1  IDiag  1:
 E= -75.7149016136696     Delta-E=       -0.000006934340 Rises=F Damp=F
 DIIS: error= 1.14D-04 at cycle   8 NSaved=   8.
 NSaved= 8 IEnMin= 8 EnMin= -75.7149016136696     IErMin= 8 ErrMin= 1.14D-04
 ErrMax= 1.14D-04  0.00D+00 EMaxC= 1.00D-01 BMatC= 8.81D-07 BMatP= 4.08D-06
 IDIUse=3 WtCom= 9.99D-01 WtEn= 1.14D-03
 Coeff-Com:  0.196D-03-0.437D-03 0.344D-02-0.127D-02-0.589D-02 0.431D-01
 Coeff-Com: -0.493D+00 0.145D+01
 Coeff-En:   0.000D+00 0.000D+00 0.000D+00 0.000D+00 0.000D+00 0.000D+00
 Coeff-En:   0.000D+00 0.100D+01
 Coeff:      0.196D-03-0.437D-03 0.344D-02-0.127D-02-0.589D-02 0.430D-01
 Coeff:     -0.493D+00 0.145D+01
 Gap=     0.258 Goal=   None    Shift=    0.000
 RMSDP=2.24D-05 MaxDP=2.61D-04 DE=-6.93D-06 OVMax= 5.64D-04

 Cycle   9  Pass 1  IDiag  1:
 E= -75.7149027501414     Delta-E=       -0.000001136472 Rises=F Damp=F
 DIIS: error= 2.82D-05 at cycle   9 NSaved=   9.
 NSaved= 9 IEnMin= 9 EnMin= -75.7149027501414     IErMin= 9 ErrMin= 2.82D-05
 ErrMax= 2.82D-05  0.00D+00 EMaxC= 1.00D-01 BMatC= 4.26D-08 BMatP= 8.81D-07
 IDIUse=1 WtCom= 1.00D+00 WtEn= 0.00D+00
 Coeff-Com:  0.546D-04-0.356D-03-0.435D-03 0.161D-01-0.286D-01 0.279D-01
 Coeff-Com: -0.253D-02-0.326D+00 0.131D+01
 Coeff:      0.546D-04-0.356D-03-0.435D-03 0.161D-01-0.286D-01 0.279D-01
 Coeff:     -0.253D-02-0.326D+00 0.131D+01
 Gap=     0.258 Goal=   None    Shift=    0.000
 RMSDP=6.64D-06 MaxDP=1.11D-04 DE=-1.14D-06 OVMax= 2.71D-04

 Cycle  10  Pass 1  IDiag  1:
 E= -75.7149028663320     Delta-E=       -0.000000116191 Rises=F Damp=F
 DIIS: error= 1.55D-05 at cycle  10 NSaved=  10.
 NSaved=10 IEnMin=10 EnMin= -75.7149028663320     IErMin=10 ErrMin= 1.55D-05
 ErrMax= 1.55D-05  0.00D+00 EMaxC= 1.00D-01 BMatC= 1.46D-08 BMatP= 4.26D-08
 IDIUse=1 WtCom= 1.00D+00 WtEn= 0.00D+00
 Coeff-Com:  0.922D-04-0.147D-03 0.437D-03-0.492D-02 0.737D-02-0.959D-02
 Coeff-Com:  0.710D-01 0.236D-01-0.128D+01 0.220D+01
 Coeff:      0.922D-04-0.147D-03 0.437D-03-0.492D-02 0.737D-02-0.959D-02
 Coeff:      0.710D-01 0.236D-01-0.128D+01 0.220D+01
 Gap=     0.258 Goal=   None    Shift=    0.000
 RMSDP=7.22D-06 MaxDP=1.13D-04 DE=-1.16D-07 OVMax= 3.02D-04

 Cycle  11  Pass 1  IDiag  1:
 E= -75.7149029267268     Delta-E=       -0.000000060395 Rises=F Damp=F
 DIIS: error= 1.72D-05 at cycle  11 NSaved=  11.
 NSaved=11 IEnMin=11 EnMin= -75.7149029267268     IErMin=10 ErrMin= 1.55D-05
 ErrMax= 1.72D-05  0.00D+00 EMaxC= 1.00D-01 BMatC= 7.48D-09 BMatP= 1.46D-08
 IDIUse=1 WtCom= 1.00D+00 WtEn= 0.00D+00
 Coeff-Com:  0.148D-04-0.621D-04 0.838D-04 0.314D-02-0.724D-02 0.101D-01
 Coeff-Com: -0.370D-01 0.179D-01 0.491D+00-0.132D+01 0.184D+01
 Coeff:      0.148D-04-0.621D-04 0.838D-04 0.314D-02-0.724D-02 0.101D-01
 Coeff:     -0.370D-01 0.179D-01 0.491D+00-0.132D+01 0.184D+01
 Gap=     0.258 Goal=   None    Shift=    0.000
 RMSDP=3.83D-06 MaxDP=5.92D-05 DE=-6.04D-08 OVMax= 1.47D-04

 Cycle  12  Pass 1  IDiag  1:
 E= -75.7149029418570     Delta-E=       -0.000000015130 Rises=F Damp=F
 DIIS: error= 3.75D-06 at cycle  12 NSaved=  12.
 NSaved=12 IEnMin=12 EnMin= -75.7149029418570     IErMin=12 ErrMin= 3.75D-06
 ErrMax= 3.75D-06  0.00D+00 EMaxC= 1.00D-01 BMatC= 3.65D-10 BMatP= 7.48D-09
 IDIUse=1 WtCom= 1.00D+00 WtEn= 0.00D+00
 Coeff-Com:  0.193D-05 0.372D-06-0.500D-04 0.781D-05 0.245D-03-0.148D-02
 Coeff-Com:  0.171D-01-0.384D-01-0.589D-01 0.304D+00-0.658D+00 0.144D+01
 Coeff:      0.193D-05 0.372D-06-0.500D-04 0.781D-05 0.245D-03-0.148D-02
 Coeff:      0.171D-01-0.384D-01-0.589D-01 0.304D+00-0.658D+00 0.144D+01
 Gap=     0.258 Goal=   None    Shift=    0.000
 RMSDP=6.36D-07 MaxDP=9.86D-06 DE=-1.51D-08 OVMax= 2.31D-05

 Cycle  13  Pass 1  IDiag  1:
 E= -75.7149029423784     Delta-E=       -0.000000000521 Rises=F Damp=F
 DIIS: error= 1.21D-07 at cycle  13 NSaved=  13.
 NSaved=13 IEnMin=13 EnMin= -75.7149029423784     IErMin=13 ErrMin= 1.21D-07
 ErrMax= 1.21D-07  0.00D+00 EMaxC= 1.00D-01 BMatC= 6.34D-13 BMatP= 3.65D-10
 IDIUse=1 WtCom= 1.00D+00 WtEn= 0.00D+00
 Coeff-Com: -0.230D-06-0.845D-07 0.752D-05-0.499D-05-0.317D-04 0.278D-03
 Coeff-Com: -0.323D-02 0.772D-02 0.629D-02-0.489D-01 0.124D+00-0.343D+00
 Coeff-Com:  0.126D+01
 Coeff:     -0.230D-06-0.845D-07 0.752D-05-0.499D-05-0.317D-04 0.278D-03
 Coeff:     -0.323D-02 0.772D-02 0.629D-02-0.489D-01 0.124D+00-0.343D+00
 Coeff:      0.126D+01
 Gap=     0.258 Goal=   None    Shift=    0.000
 RMSDP=3.23D-08 MaxDP=2.41D-07 DE=-5.21D-10 OVMax= 7.87D-07

 Cycle  14  Pass 1  IDiag  1:
 E= -75.7149029423795     Delta-E=       -0.000000000001 Rises=F Damp=F
 DIIS: error= 1.12D-08 at cycle  14 NSaved=  14.
 NSaved=14 IEnMin=14 EnMin= -75.7149029423795     IErMin=14 ErrMin= 1.12D-08
 ErrMax= 1.12D-08  0.00D+00 EMaxC= 1.00D-01 BMatC= 9.37D-15 BMatP= 6.34D-13
 IDIUse=1 WtCom= 1.00D+00 WtEn= 0.00D+00
 Coeff-Com: -0.285D-07 0.949D-07-0.876D-06 0.351D-05-0.338D-05-0.243D-04
 Coeff-Com:  0.314D-03-0.783D-03-0.264D-03 0.430D-02-0.139D-01 0.504D-01
 Coeff-Com: -0.302D+00 0.126D+01
 Coeff:     -0.285D-07 0.949D-07-0.876D-06 0.351D-05-0.338D-05-0.243D-04
 Coeff:      0.314D-03-0.783D-03-0.264D-03 0.430D-02-0.139D-01 0.504D-01
 Coeff:     -0.302D+00 0.126D+01
 Gap=     0.258 Goal=   None    Shift=    0.000
 RMSDP=5.06D-09 MaxDP=3.58D-08 DE=-1.08D-12 OVMax= 1.37D-07

 SCF Done:  E(RHF) =  -75.7149029424     A.U. after   14 cycles
            NFock= 14  Conv=0.51D-08     -V/T= 2.0047
 KE= 7.535799575307D+01 PE=-1.918289086163D+02 EE= 3.465792216961D+01
 Leave Link  502 at Thu Nov  7 22:50:14 2019, MaxMem=  1310720000 cpu:         3.8
 (Enter /usr/local/gaussian/g09/l801.exe)
 ExpMin= 2.97D-02 ExpMax= 1.17D+04 ExpMxC= 4.01D+02 IAcc=3 IRadAn=         5 AccDes= 0.00D+00
 HarFok:  IExCor=  205 AccDes= 0.00D+00 IRadAn=         5 IDoV=-2 UseB2=F ITyADJ=14
 ICtDFT= 12500011 ScaDFX=  1.000000  1.000000  1.000000  1.000000
 Largest valence mixing into a core orbital is  6.87D-05
 Largest core mixing into a valence orbital is  2.50D-05
 Range of M.O.s used for correlation:     2    41
 NBasis=    41 NAE=     5 NBE=     5 NFC=     1 NFV=     0
 NROrb=     40 NOA=     4 NOB=     4 NVA=    36 NVB=    36
 Leave Link  801 at Thu Nov  7 22:50:14 2019, MaxMem=  1310720000 cpu:         1.4
 (Enter /usr/local/gaussian/g09/l906.exe)
 Frozen-core derivative calculation, NFC=   1 NFV=   0.
 FulOut=F Deriv=T AODrv=T NAtomX=     3
   MMem=       30571  MDisk=           4 MDiskD=           4
  W3Min=        8815 MinDsk=       75198 NBas6D=          43
 NBas2D=         997    NTT=         946    LW2=     2040000
    MDV=  1310687516 MDiskM=      422702 NBas2p=         997
 Fully direct method using O(ONN) memory.
 IMap=   1   2   3   4   5
 JobTyp=1 Pass  1:  I=   2 to   5 NPSUse= 20 ParTrn=T ParDer=T DoDerP=T.
 Spin components of T(2) and E(2):
     alpha-alpha T2 =       0.1240910081D-01 E2=     -0.3108799393D-01
     alpha-beta  T2 =       0.2033253721D+00 E2=     -0.2444840118D+00
     beta-beta   T2 =       0.1240910081D-01 E2=     -0.3108799393D-01
 The integrals were generated   1 times.
 ANorm=    0.1108216393D+01
 E2 =    -0.3066599997D+00 EUMP2 =    -0.76021562942073D+02
 Leave Link  906 at Thu Nov  7 22:50:14 2019, MaxMem=  1310720000 cpu:         2.8
 (Enter /usr/local/gaussian/g09/l1002.exe)
 Minotr:  Closed shell wavefunction.
          Computing MP2/KS-MP2 derivatives.
          Using Z-Vector for PSCF gradient.
          Skipping F1 and S1 gradient terms here.
          IDoAtm=111
          Frozen-core window.
          Direct CPHF calculation.
          Differentiating once with respect to electric field.
                with respect to dipole field.
          Differentiating once with respect to nuclear coordinates.
          Using symmetry in CPHF.
          Requested convergence is 1.0D-10 RMS, and 1.0D-09 maximum.
          NewPWx=F KeepS1=T KeepF1=T KeepIn=T MapXYZ=F SortEE=F KeepMc=T.
          MDV=    1310719926 using IRadAn=       0.
 Keep R1 ints in memory in symmetry-blocked form, NReq=1217442.
 FoFCou: FMM=F IPFlag=           0 FMFlag=           0 FMFlg1=           0
         NFxFlg=           0 DoJE=F BraDBF=F KetDBF=F FulRan=T
         wScrn=  0.000000 ICntrl=     600 IOpCl=  0 I1Cent=           0 NGrid=           0
         NMat0=    1 NMatS0=    861 NMatT0=    0 NMatD0=    1 NMtDS0=    0 NMtDT0=    0
 Petite list used in FoFCou.
          Solving linear equations separately, MaxMat=       0.
          There are     1 degrees of freedom in the 1st order CPHF.  IDoFFX=0 NUNeed=     1.
 LinEq1:  Iter=  0 NonCon=     1 RMS=3.44D-02 Max=2.32D-01 NDo=     1
 AX will form     1 AO Fock derivatives at one time.
 LinEq1:  Iter=  1 NonCon=     1 RMS=8.69D-03 Max=3.81D-02 NDo=     1
 LinEq1:  Iter=  2 NonCon=     1 RMS=1.28D-02 Max=1.40D-01 NDo=     1
 LinEq1:  Iter=  3 NonCon=     1 RMS=2.29D-03 Max=1.12D-02 NDo=     1
 LinEq1:  Iter=  4 NonCon=     1 RMS=4.68D-04 Max=4.42D-03 NDo=     1
 LinEq1:  Iter=  5 NonCon=     1 RMS=9.70D-05 Max=4.72D-04 NDo=     1
 LinEq1:  Iter=  6 NonCon=     1 RMS=2.22D-05 Max=1.65D-04 NDo=     1
 LinEq1:  Iter=  7 NonCon=     1 RMS=2.67D-06 Max=1.20D-05 NDo=     1
 LinEq1:  Iter=  8 NonCon=     1 RMS=3.98D-07 Max=1.65D-06 NDo=     1
 LinEq1:  Iter=  9 NonCon=     1 RMS=6.11D-08 Max=2.79D-07 NDo=     1
 LinEq1:  Iter= 10 NonCon=     1 RMS=6.97D-09 Max=3.15D-08 NDo=     1
 LinEq1:  Iter= 11 NonCon=     1 RMS=8.25D-10 Max=2.89D-09 NDo=     1
 LinEq1:  Iter= 12 NonCon=     0 RMS=9.01D-11 Max=3.86D-10 NDo=     1
 Linear equations converged to 1.000D-10 1.000D-09 after    12 iterations.
 End of Minotr F.D. properties file   721 does not exist.
 End of Minotr F.D. properties file   722 does not exist.
 End of Minotr F.D. properties file   788 does not exist.
 Leave Link 1002 at Thu Nov  7 22:50:14 2019, MaxMem=  1310720000 cpu:         4.3
 (Enter /usr/local/gaussian/g09/l601.exe)
 Copying SCF densities to generalized density rwf, IOpCl= 0 IROHF=0.

 **********************************************************************

            Population analysis using the SCF density.

 **********************************************************************

 Orbital symmetries:
       Occupied  (A') (A') (A') (A") (A')
       Virtual   (A') (A') (A') (A') (A") (A') (A') (A') (A") (A')
                 (A') (A") (A') (A') (A') (A') (A") (A') (A") (A')
                 (A') (A") (A') (A') (A") (A') (A') (A') (A") (A')
                 (A') (A") (A') (A") (A') (A')
 The electronic state is 1-A'.
 Alpha  occ. eigenvalues --  -20.67212  -1.31079  -0.66302  -0.54782  -0.38377
 Alpha virt. eigenvalues --   -0.12567   0.05732   0.07368   0.18642   0.19418
 Alpha virt. eigenvalues --    0.23072   0.24109   0.26786   0.28718   0.37920
 Alpha virt. eigenvalues --    0.39188   0.43593   0.54685   0.65580   0.79285
 Alpha virt. eigenvalues --    0.86321   0.99106   1.05666   1.12468   1.14312
 Alpha virt. eigenvalues --    1.31899   1.40657   1.51726   1.69367   1.73159
 Alpha virt. eigenvalues --    1.74247   1.83982   2.02017   2.02124   2.47604
 Alpha virt. eigenvalues --    2.78331   3.53529   3.55838   3.65375   3.66114
 Alpha virt. eigenvalues --    4.07132
          Condensed to atoms (all electrons):
               1          2          3
     1  H    0.481208   0.287131   0.078670
     2  O    0.287131   7.905523   0.060244
     3  H    0.078670   0.060244   0.761181
 Mulliken charges:
               1
     1  H    0.152992
     2  O   -0.252898
     3  H    0.099906
 Sum of Mulliken charges =   0.00000
 Mulliken charges with hydrogens summed into heavy atoms:
               1
     2  O    0.000000
 Electronic spatial extent (au):  <R**2>=             38.6773
 Charge=              0.0000 electrons
 Dipole moment (field-independent basis, Debye):
    X=              0.8899    Y=             -2.5023    Z=             -0.0000  Tot=              2.6558
 Quadrupole moment (field-independent basis, Debye-Ang):
   XX=             -7.4407   YY=             -3.1913   ZZ=             -8.7286
   XY=              0.4899   XZ=              0.0000   YZ=              0.0000
 Traceless Quadrupole moment (field-independent basis, Debye-Ang):
   XX=             -0.9872   YY=              3.2622   ZZ=             -2.2751
   XY=              0.4899   XZ=              0.0000   YZ=              0.0000
 Octapole moment (field-independent basis, Debye-Ang**2):
  XXX=              2.3829  YYY=             -6.3537  ZZZ=              0.0000  XYY=             -1.6133
  XXY=              1.0585  XXZ=              0.0000  XZZ=              0.7353  YZZ=              1.8072
  YYZ=             -0.0000  XYZ=             -0.0000
 Hexadecapole moment (field-independent basis, Debye-Ang**3):
 XXXX=            -11.7136 YYYY=            -23.8534 ZZZZ=             -9.2967 XXXY=             -4.6548
 XXXZ=             -0.0000 YYYX=              2.6333 YYYZ=              0.0000 ZZZX=             -0.0000
 ZZZY=             -0.0000 XXYY=             -9.5920 XXZZ=             -3.5397 YYZZ=            -11.1548
 XXYZ=             -0.0000 YYXZ=              0.0000 ZZXY=             -1.6094
 N-N= 6.098087751201D+00 E-N=-1.918289085777D+02  KE= 7.535799575307D+01
 Symmetry A'   KE= 7.058193506699D+01
 Symmetry A"   KE= 4.776060686082D+00
 No NMR shielding tensors so no spin-rotation constants.
 Leave Link  601 at Thu Nov  7 22:50:15 2019, MaxMem=  1310720000 cpu:         3.7
 (Enter /usr/local/gaussian/g09/l701.exe)
 Compute integral first derivatives.
 ... and contract with generalized density number  2.
 Leave Link  701 at Thu Nov  7 22:50:15 2019, MaxMem=  1310720000 cpu:         3.4
 (Enter /usr/local/gaussian/g09/l702.exe)
 L702 exits ... SP integral derivatives will be done elsewhere.
 Leave Link  702 at Thu Nov  7 22:50:15 2019, MaxMem=  1310720000 cpu:         0.5
 (Enter /usr/local/gaussian/g09/l703.exe)
 Compute integral first derivatives, UseDBF=F ICtDFT=           0.
 Integral derivatives from FoFJK, PRISM(SPDF).
 Calling FoFJK, ICntrl=  10002127 FMM=F ISym2X=1 I1Cent= 0 IOpClX= 0 NMat=1 NMatS=1 NMatT=0.
 FoFJK:  IHMeth= 1 ICntrl=10002127 DoSepK=F KAlg= 0 I1Cent=   0 FoldK=F
 IRaf=         0 NMat=   1 IRICut=       1 DoRegI=T DoRafI=F ISym2E= 1.
 FoFCou: FMM=F IPFlag=           0 FMFlag=      100000 FMFlg1=         800
         NFxFlg=           0 DoJE=F BraDBF=F KetDBF=F FulRan=T
         wScrn=  0.000000 ICntrl=10002127 IOpCl=  0 I1Cent=           0 NGrid=           0
         NMat0=    1 NMatS0=      1 NMatT0=    0 NMatD0=    1 NMtDS0=    0 NMtDT0=    0
 Petite list used in FoFCou.
 Leave Link  703 at Thu Nov  7 22:50:15 2019, MaxMem=  1310720000 cpu:         3.1
 (Enter /usr/local/gaussian/g09/l716.exe)
 Dipole        = 9.48310482D-02-1.70238019D+00-5.80632500D-32
 ***** Axes restored to original set *****
 -------------------------------------------------------------------
 Center     Atomic                   Forces (Hartrees/Bohr)
 Number     Number              X              Y              Z
 -------------------------------------------------------------------
      1        1          -0.021448089    0.000000000    0.038772821
      2        8           0.017586191   -0.000000000   -0.046696544
      3        1           0.003861898   -0.000000000    0.007923723
 -------------------------------------------------------------------
 Cartesian Forces:  Max     0.046696544 RMS     0.022437303
 -----------------------------------------------------------------------------------------------
                       Internal Coordinate Forces (Hartree/Bohr or radian)
  Cent   Atom   N1       Length/X         N2         Alpha/Y        N3         Beta/Z          J
 -----------------------------------------------------------------------------------------------
      1  H 
      2  O        1  -0.046697(     1)
      3  H        1  -0.000617(     2)      2  -0.033233(     3)
 -----------------------------------------------------------------------------------------------
 Internal  Forces:  Max     0.046696544 RMS     0.033092728
 Force constants in Cartesian coordinates: 
                1             2             3             4             5 
      1  0.899742D-01
      2  0.000000D+00  0.100000D+01
      3  0.127232D-01  0.000000D+00  0.491940D+00
      4 -0.560057D-01  0.000000D+00 -0.194009D-01  0.448046D-01
      5  0.000000D+00  0.000000D+00  0.000000D+00  0.000000D+00  0.100000D+01
      6  0.000000D+00  0.000000D+00 -0.476883D+00  0.000000D+00  0.000000D+00
      7 -0.339685D-01  0.000000D+00  0.667774D-02  0.112011D-01  0.000000D+00
      8  0.000000D+00  0.000000D+00  0.000000D+00  0.000000D+00  0.000000D+00
      9 -0.127232D-01  0.000000D+00 -0.150565D-01  0.194009D-01  0.000000D+00
                6             7             8             9 
      6  0.476883D+00
      7  0.000000D+00  0.227673D-01
      8  0.000000D+00  0.000000D+00  0.100000D+01
      9  0.000000D+00 -0.667774D-02  0.000000D+00  0.150565D-01
 Force constants in internal coordinates: 
                1             2             3 
      1  0.476883D+00
      2  0.000000D+00  0.266227D-01
      3  0.000000D+00  0.000000D+00  0.160000D+00
 Leave Link  716 at Thu Nov  7 22:50:15 2019, MaxMem=  1310720000 cpu:         0.7
 (Enter /usr/local/gaussian/g09/l103.exe)

 GradGradGradGradGradGradGradGradGradGradGradGradGradGradGradGradGradGrad
 Berny optimization.
 Search for a local minimum.
 Step number   1 out of a maximum of   20
 All quantities printed in internal units (Hartrees-Bohrs-Radians)
 Second derivative matrix not updated -- first step.
 The second derivative matrix:
                          R1        R1p       A1
           R1           0.47688
           R1p          0.00000   0.02662
           A1          -0.00000  -0.00000   0.16000
 ITU=  0
     Eigenvalues ---    0.02662   0.16000   0.47688
 RFO step:  Lambda=-1.09410595D-02 EMin= 2.66227267D-02
 Linear search not attempted -- first point.
 Variable       Old X    -DE/DX   Delta X   Delta X   Delta X     New X
                                 (Linear)    (Quad)   (Total)
    R1        1.88973  -0.04670   0.00000  -0.09572  -0.09572   1.79400
   R1p        3.77945  -0.00062   0.00000  -0.01643  -0.01643   3.76302
    A1        2.09440  -0.03323   0.00000  -0.19441  -0.19441   1.89998
         Item               Value     Threshold  Converged?
 Maximum Force            0.046697     0.000450     NO 
 RMS     Force            0.033093     0.000300     NO 
 Maximum Displacement     0.194413     0.001800     NO 
 RMS     Displacement     0.125472     0.001200     NO 
 Predicted change in Energy=-5.728898D-03
 Lowest energy point so far.  Saving SCF results.
 GradGradGradGradGradGradGradGradGradGradGradGradGradGradGradGradGradGrad

 Leave Link  103 at Thu Nov  7 22:50:15 2019, MaxMem=  1310720000 cpu:         0.4
 (Enter /usr/local/gaussian/g09/l202.exe)
 ---------------------------------------------------------------------------------------------------
                            Z-MATRIX (ANGSTROMS AND DEGREES)
   CD    Cent   Atom    N1       Length/X        N2       Alpha/Y        N3        Beta/Z          J
 ---------------------------------------------------------------------------------------------------
      1      1  H 
      2      2  O        1   0.949345(     1)
      3      3  H        1   1.991303(     2)      2  108.861(     3)
 ---------------------------------------------------------------------------------------------------
                         Z-Matrix orientation:                         
 ---------------------------------------------------------------------
 Center     Atomic      Atomic             Coordinates (Angstroms)
 Number     Number       Type             X           Y           Z
 ---------------------------------------------------------------------
      1          1           0        0.000000    0.000000    0.000000
      2          8           0        0.000000    0.000000    0.949345
      3          1           0        1.884381    0.000000   -0.643735
 ---------------------------------------------------------------------
                    Distance matrix (angstroms):
                    1          2          3
     1  H    0.000000
     2  O    0.949345   0.000000
     3  H    1.991303   2.467549   0.000000
 Stoichiometry    H2O
 Framework group  CS[SG(H2O)]
 Deg. of freedom     3
 Full point group                 CS      NOp   2
 RotChk:  IX=0 Diff= 1.61D-01
 Largest Abelian subgroup         CS      NOp   2
 Largest concise Abelian subgroup C1      NOp   1
                         Standard orientation:                         
 ---------------------------------------------------------------------
 Center     Atomic      Atomic             Coordinates (Angstroms)
 Number     Number       Type             X           Y           Z
 ---------------------------------------------------------------------
      1          1           0        0.565290   -0.446233   -0.000000
      2          8           0        0.000000    0.316462    0.000000
      3          1           0       -0.565290   -2.085463   -0.000000
 ---------------------------------------------------------------------
 Rotational constants (GHZ):   1050.1856282     84.2476309     77.9910590
 Leave Link  202 at Thu Nov  7 22:50:15 2019, MaxMem=  1310720000 cpu:         0.0
 (Enter /usr/local/gaussian/g09/l301.exe)
 Standard basis: Aug-CC-pVDZ (5D, 7F)
 Ernie: Thresh=  0.10000D-02 Tol=  0.10000D-05 Strict=F.
 Ernie:  2 primitive shells out of 39 were deleted.
 There are    32 symmetry adapted cartesian basis functions of A'  symmetry.
 There are    11 symmetry adapted cartesian basis functions of A"  symmetry.
 There are    30 symmetry adapted basis functions of A'  symmetry.
 There are    11 symmetry adapted basis functions of A"  symmetry.
    41 basis functions,    65 primitive gaussians,    43 cartesian basis functions
     5 alpha electrons        5 beta electrons
       nuclear repulsion energy         6.4406849259 Hartrees.
 IExCor=    0 DFT=F Ex=HF Corr=None ExCW=0 ScaHFX=  1.000000
 ScaDFX=  1.000000  1.000000  1.000000  1.000000 ScalE2=  1.000000  1.000000
 IRadAn=      0 IRanWt=     -1 IRanGd=            0 ICorTp=0 IEmpDi=  4
 NAtoms=    3 NActive=    3 NUniq=    3 SFac= 1.00D+00 NAtFMM=   60 NAOKFM=F Big=F
 Integral buffers will be    131072 words long.
 Raffenetti 1 integral format.
 Two-electron integral symmetry is turned on.
 Leave Link  301 at Thu Nov  7 22:50:15 2019, MaxMem=  1310720000 cpu:         0.8
 (Enter /usr/local/gaussian/g09/l302.exe)
 NPDir=0 NMtPBC=     1 NCelOv=     1 NCel=       1 NClECP=     1 NCelD=      1
         NCelK=      1 NCelE2=     1 NClLst=     1 CellRange=     0.0.
 One-electron integrals computed using PRISM.
 NBasis=    41 RedAO= T EigKep=  4.39D-03  NBF=    30    11
 NBsUse=    41 1.00D-06 EigRej= -1.00D+00 NBFU=    30    11
 Leave Link  302 at Thu Nov  7 22:50:15 2019, MaxMem=  1310720000 cpu:         3.1
 (Enter /usr/local/gaussian/g09/l303.exe)
 DipDrv:  MaxL=1.
 Leave Link  303 at Thu Nov  7 22:50:15 2019, MaxMem=  1310720000 cpu:         0.6
 (Enter /usr/local/gaussian/g09/l401.exe)
 Initial guess from the checkpoint file:  "/scratch/Gau-15274.chk"
 B after Tr=     0.000000   -0.000000    0.000000
         Rot=    0.999922    0.000000    0.000000    0.012517 Ang=   1.43 deg.
 Guess basis will be translated and rotated to current coordinates.
 JPrj=2 DoOrth=T DoCkMO=T.
 Initial guess orbital symmetries:
       Occupied  (A') (A') (A') (A") (A')
       Virtual   (A') (A') (A') (A') (A') (A') (A') (A') (A') (A')
                 (A') (A') (A') (A') (A') (A') (A') (A') (A') (A')
                 (A') (A') (A') (A') (A') (A') (A") (A") (A") (A")
                 (A") (A") (A") (A") (A") (A")
 The electronic state of the initial guess is 1-A'.
 Generating alternative initial guess.
 ExpMin= 2.97D-02 ExpMax= 1.17D+04 ExpMxC= 4.01D+02 IAcc=3 IRadAn=         5 AccDes= 0.00D+00
 Harris functional with IExCor=  205 and IRadAn=       5 diagonalized for initial guess.
 HarFok:  IExCor=  205 AccDes= 0.00D+00 IRadAn=         5 IDoV= 1 UseB2=F ITyADJ=14
 ICtDFT=  3500011 ScaDFX=  1.000000  1.000000  1.000000  1.000000
 FoFCou: FMM=F IPFlag=           0 FMFlag=      100000 FMFlg1=           0
         NFxFlg=           0 DoJE=T BraDBF=F KetDBF=T FulRan=T
         wScrn=  0.000000 ICntrl=     500 IOpCl=  0 I1Cent=   200000004 NGrid=           0
         NMat0=    1 NMatS0=      1 NMatT0=    0 NMatD0=    1 NMtDS0=    0 NMtDT0=    0
 Petite list used in FoFCou.
 Harris En= -75.9561724833282    
 Leave Link  401 at Thu Nov  7 22:50:16 2019, MaxMem=  1310720000 cpu:         3.6
 (Enter /usr/local/gaussian/g09/l502.exe)
 Closed shell SCF:
 Using DIIS extrapolation, IDIIS=  1040.
 Integral symmetry usage will be decided dynamically.
 Keep R1 ints in memory in symmetry-blocked form, NReq=1235200.
 IVT=       25304 IEndB=       25304 NGot=  1310720000 MDV=  1310496581
 LenX=  1310496581 LenY=  1310494291
 Requested convergence on RMS density matrix=1.00D-08 within 128 cycles.
 Requested convergence on MAX density matrix=1.00D-06.
 Requested convergence on             energy=1.00D-06.
 No special actions if energy rises.
 FoFCou: FMM=F IPFlag=           0 FMFlag=           0 FMFlg1=           0
         NFxFlg=           0 DoJE=F BraDBF=F KetDBF=F FulRan=T
         wScrn=  0.000000 ICntrl=     600 IOpCl=  0 I1Cent=           0 NGrid=           0
         NMat0=    1 NMatS0=    861 NMatT0=    0 NMatD0=    1 NMtDS0=    0 NMtDT0=    0
 Petite list used in FoFCou.

 Cycle   1  Pass 1  IDiag  1:
 E= -75.7315365891284    
 DIIS: error= 7.12D-03 at cycle   1 NSaved=   1.
 NSaved= 1 IEnMin= 1 EnMin= -75.7315365891284     IErMin= 1 ErrMin= 7.12D-03
 ErrMax= 7.12D-03  0.00D+00 EMaxC= 1.00D-01 BMatC= 3.64D-03 BMatP= 3.64D-03
 IDIUse=3 WtCom= 9.29D-01 WtEn= 7.12D-02
 Coeff-Com:  0.100D+01
 Coeff-En:   0.100D+01
 Coeff:      0.100D+01
 Gap=     0.598 Goal=   None    Shift=    0.000
 GapD=    0.598 DampG=2.000 DampE=1.000 DampFc=2.0000 IDamp=-1.
 RMSDP=1.88D-03 MaxDP=2.65D-02              OVMax= 3.38D-02

 Cycle   2  Pass 1  IDiag  1:
 E= -75.7355452379526     Delta-E=       -0.004008648824 Rises=F Damp=F
 DIIS: error= 3.10D-03 at cycle   2 NSaved=   2.
 NSaved= 2 IEnMin= 2 EnMin= -75.7355452379526     IErMin= 2 ErrMin= 3.10D-03
 ErrMax= 3.10D-03  0.00D+00 EMaxC= 1.00D-01 BMatC= 5.30D-04 BMatP= 3.64D-03
 IDIUse=3 WtCom= 9.69D-01 WtEn= 3.10D-02
 Coeff-Com:  0.149D-01 0.985D+00
 Coeff-En:   0.000D+00 0.100D+01
 Coeff:      0.145D-01 0.986D+00
 Gap=     0.282 Goal=   None    Shift=    0.000
 RMSDP=6.70D-04 MaxDP=8.06D-03 DE=-4.01D-03 OVMax= 2.01D-02

 Cycle   3  Pass 1  IDiag  1:
 E= -75.7357850018929     Delta-E=       -0.000239763940 Rises=F Damp=F
 DIIS: error= 3.02D-03 at cycle   3 NSaved=   3.
 NSaved= 3 IEnMin= 3 EnMin= -75.7357850018929     IErMin= 3 ErrMin= 3.02D-03
 ErrMax= 3.02D-03  0.00D+00 EMaxC= 1.00D-01 BMatC= 4.35D-04 BMatP= 5.30D-04
 IDIUse=3 WtCom= 9.70D-01 WtEn= 3.02D-02
 Coeff-Com: -0.118D+00 0.534D+00 0.584D+00
 Coeff-En:   0.000D+00 0.311D+00 0.689D+00
 Coeff:     -0.114D+00 0.527D+00 0.587D+00
 Gap=     0.283 Goal=   None    Shift=    0.000
 RMSDP=4.16D-04 MaxDP=7.10D-03 DE=-2.40D-04 OVMax= 1.83D-02

 Cycle   4  Pass 1  IDiag  1:
 E= -75.7362925964720     Delta-E=       -0.000507594579 Rises=F Damp=F
 DIIS: error= 8.98D-04 at cycle   4 NSaved=   4.
 NSaved= 4 IEnMin= 4 EnMin= -75.7362925964720     IErMin= 4 ErrMin= 8.98D-04
 ErrMax= 8.98D-04  0.00D+00 EMaxC= 1.00D-01 BMatC= 3.28D-05 BMatP= 4.35D-04
 IDIUse=3 WtCom= 9.91D-01 WtEn= 8.98D-03
 Coeff-Com:  0.195D-01-0.233D+00 0.465D-01 0.117D+01
 Coeff-En:   0.000D+00 0.000D+00 0.000D+00 0.100D+01
 Coeff:      0.193D-01-0.231D+00 0.461D-01 0.117D+01
 Gap=     0.283 Goal=   None    Shift=    0.000
 RMSDP=1.66D-04 MaxDP=1.89D-03 DE=-5.08D-04 OVMax= 5.39D-03

 Cycle   5  Pass 1  IDiag  1:
 E= -75.7363667284633     Delta-E=       -0.000074131991 Rises=F Damp=F
 DIIS: error= 3.14D-04 at cycle   5 NSaved=   5.
 NSaved= 5 IEnMin= 5 EnMin= -75.7363667284633     IErMin= 5 ErrMin= 3.14D-04
 ErrMax= 3.14D-04  0.00D+00 EMaxC= 1.00D-01 BMatC= 4.15D-06 BMatP= 3.28D-05
 IDIUse=3 WtCom= 9.97D-01 WtEn= 3.14D-03
 Coeff-Com:  0.123D-01-0.171D-01-0.613D-01-0.536D+00 0.160D+01
 Coeff-En:   0.000D+00 0.000D+00 0.000D+00 0.000D+00 0.100D+01
 Coeff:      0.123D-01-0.170D-01-0.611D-01-0.534D+00 0.160D+01
 Gap=     0.283 Goal=   None    Shift=    0.000
 RMSDP=1.30D-04 MaxDP=1.62D-03 DE=-7.41D-05 OVMax= 4.57D-03

 Cycle   6  Pass 1  IDiag  1:
 E= -75.7363903549238     Delta-E=       -0.000023626460 Rises=F Damp=F
 DIIS: error= 1.16D-04 at cycle   6 NSaved=   6.
 NSaved= 6 IEnMin= 6 EnMin= -75.7363903549238     IErMin= 6 ErrMin= 1.16D-04
 ErrMax= 1.16D-04  0.00D+00 EMaxC= 1.00D-01 BMatC= 6.00D-07 BMatP= 4.15D-06
 IDIUse=3 WtCom= 9.99D-01 WtEn= 1.16D-03
 Coeff-Com: -0.885D-02 0.431D-01 0.347D-01 0.949D-01-0.947D+00 0.178D+01
 Coeff-En:   0.000D+00 0.000D+00 0.000D+00 0.000D+00 0.000D+00 0.100D+01
 Coeff:     -0.884D-02 0.430D-01 0.347D-01 0.948D-01-0.946D+00 0.178D+01
 Gap=     0.283 Goal=   None    Shift=    0.000
 RMSDP=7.49D-05 MaxDP=1.02D-03 DE=-2.36D-05 OVMax= 2.69D-03

 Cycle   7  Pass 1  IDiag  1:
 E= -75.7363953135357     Delta-E=       -0.000004958612 Rises=F Damp=F
 DIIS: error= 3.84D-05 at cycle   7 NSaved=   7.
 NSaved= 7 IEnMin= 7 EnMin= -75.7363953135357     IErMin= 7 ErrMin= 3.84D-05
 ErrMax= 3.84D-05  0.00D+00 EMaxC= 1.00D-01 BMatC= 6.70D-08 BMatP= 6.00D-07
 IDIUse=1 WtCom= 1.00D+00 WtEn= 0.00D+00
 Coeff-Com:  0.349D-02-0.220D-01-0.177D-01 0.121D-01 0.340D+00-0.101D+01
 Coeff-Com:  0.169D+01
 Coeff:      0.349D-02-0.220D-01-0.177D-01 0.121D-01 0.340D+00-0.101D+01
 Coeff:      0.169D+01
 Gap=     0.283 Goal=   None    Shift=    0.000
 RMSDP=2.41D-05 MaxDP=3.54D-04 DE=-4.96D-06 OVMax= 8.47D-04

 Cycle   8  Pass 1  IDiag  1:
 E= -75.7363958219545     Delta-E=       -0.000000508419 Rises=F Damp=F
 DIIS: error= 1.91D-05 at cycle   8 NSaved=   8.
 NSaved= 8 IEnMin= 8 EnMin= -75.7363958219545     IErMin= 8 ErrMin= 1.91D-05
 ErrMax= 1.91D-05  0.00D+00 EMaxC= 1.00D-01 BMatC= 1.31D-08 BMatP= 6.70D-08
 IDIUse=1 WtCom= 1.00D+00 WtEn= 0.00D+00
 Coeff-Com:  0.455D-04 0.192D-02-0.246D-02-0.657D-02 0.310D-02 0.129D+00
 Coeff-Com: -0.640D+00 0.151D+01
 Coeff:      0.455D-04 0.192D-02-0.246D-02-0.657D-02 0.310D-02 0.129D+00
 Coeff:     -0.640D+00 0.151D+01
 Gap=     0.283 Goal=   None    Shift=    0.000
 RMSDP=6.40D-06 MaxDP=8.23D-05 DE=-5.08D-07 OVMax= 1.79D-04

 Cycle   9  Pass 1  IDiag  1:
 E= -75.7363958647432     Delta-E=       -0.000000042789 Rises=F Damp=F
 DIIS: error= 2.98D-06 at cycle   9 NSaved=   9.
 NSaved= 9 IEnMin= 9 EnMin= -75.7363958647432     IErMin= 9 ErrMin= 2.98D-06
 ErrMax= 2.98D-06  0.00D+00 EMaxC= 1.00D-01 BMatC= 4.71D-10 BMatP= 1.31D-08
 IDIUse=1 WtCom= 1.00D+00 WtEn= 0.00D+00
 Coeff-Com: -0.344D-03 0.147D-02 0.151D-02 0.408D-02-0.401D-01 0.699D-01
 Coeff-Com: -0.691D-02-0.313D+00 0.128D+01
 Coeff:     -0.344D-03 0.147D-02 0.151D-02 0.408D-02-0.401D-01 0.699D-01
 Coeff:     -0.691D-02-0.313D+00 0.128D+01
 Gap=     0.283 Goal=   None    Shift=    0.000
 RMSDP=1.02D-06 MaxDP=1.25D-05 DE=-4.28D-08 OVMax= 3.33D-05

 Cycle  10  Pass 1  IDiag  1:
 E= -75.7363958659505     Delta-E=       -0.000000001207 Rises=F Damp=F
 DIIS: error= 4.24D-07 at cycle  10 NSaved=  10.
 NSaved=10 IEnMin=10 EnMin= -75.7363958659505     IErMin=10 ErrMin= 4.24D-07
 ErrMax= 4.24D-07  0.00D+00 EMaxC= 1.00D-01 BMatC= 1.00D-11 BMatP= 4.71D-10
 IDIUse=1 WtCom= 1.00D+00 WtEn= 0.00D+00
 Coeff-Com:  0.724D-04-0.383D-03-0.290D-03-0.398D-03 0.829D-02-0.197D-01
 Coeff-Com:  0.214D-01 0.360D-01-0.367D+00 0.132D+01
 Coeff:      0.724D-04-0.383D-03-0.290D-03-0.398D-03 0.829D-02-0.197D-01
 Coeff:      0.214D-01 0.360D-01-0.367D+00 0.132D+01
 Gap=     0.283 Goal=   None    Shift=    0.000
 RMSDP=1.96D-07 MaxDP=1.63D-06 DE=-1.21D-09 OVMax= 4.38D-06

 Cycle  11  Pass 1  IDiag  1:
 E= -75.7363958659831     Delta-E=       -0.000000000033 Rises=F Damp=F
 DIIS: error= 1.42D-07 at cycle  11 NSaved=  11.
 NSaved=11 IEnMin=11 EnMin= -75.7363958659831     IErMin=11 ErrMin= 1.42D-07
 ErrMax= 1.42D-07  0.00D+00 EMaxC= 1.00D-01 BMatC= 6.18D-13 BMatP= 1.00D-11
 IDIUse=1 WtCom= 1.00D+00 WtEn= 0.00D+00
 Coeff-Com: -0.923D-05 0.608D-04 0.752D-05 0.534D-04-0.104D-02 0.327D-02
 Coeff-Com: -0.655D-02 0.465D-02 0.343D-01-0.281D+00 0.125D+01
 Coeff:     -0.923D-05 0.608D-04 0.752D-05 0.534D-04-0.104D-02 0.327D-02
 Coeff:     -0.655D-02 0.465D-02 0.343D-01-0.281D+00 0.125D+01
 Gap=     0.283 Goal=   None    Shift=    0.000
 RMSDP=3.79D-08 MaxDP=4.25D-07 DE=-3.26D-11 OVMax= 5.55D-07

 Cycle  12  Pass 1  IDiag  1:
 E= -75.7363958659841     Delta-E=       -0.000000000001 Rises=F Damp=F
 DIIS: error= 1.04D-08 at cycle  12 NSaved=  12.
 NSaved=12 IEnMin=12 EnMin= -75.7363958659841     IErMin=12 ErrMin= 1.04D-08
 ErrMax= 1.04D-08  0.00D+00 EMaxC= 1.00D-01 BMatC= 4.74D-15 BMatP= 6.18D-13
 IDIUse=1 WtCom= 1.00D+00 WtEn= 0.00D+00
 Coeff-Com:  0.124D-05-0.971D-05 0.362D-05-0.190D-05 0.107D-03-0.465D-03
 Coeff-Com:  0.117D-02-0.141D-02-0.254D-02 0.459D-01-0.296D+00 0.125D+01
 Coeff:      0.124D-05-0.971D-05 0.362D-05-0.190D-05 0.107D-03-0.465D-03
 Coeff:      0.117D-02-0.141D-02-0.254D-02 0.459D-01-0.296D+00 0.125D+01
 Gap=     0.283 Goal=   None    Shift=    0.000
 RMSDP=3.34D-09 MaxDP=3.05D-08 DE=-1.04D-12 OVMax= 6.87D-08

 SCF Done:  E(RHF) =  -75.7363958660     A.U. after   12 cycles
            NFock= 12  Conv=0.33D-08     -V/T= 2.0041
 KE= 7.542994159097D+01 PE=-1.926111954583D+02 EE= 3.500417307543D+01
 Leave Link  502 at Thu Nov  7 22:50:16 2019, MaxMem=  1310720000 cpu:         2.8
 (Enter /usr/local/gaussian/g09/l801.exe)
 ExpMin= 2.97D-02 ExpMax= 1.17D+04 ExpMxC= 4.01D+02 IAcc=3 IRadAn=         5 AccDes= 0.00D+00
 HarFok:  IExCor=  205 AccDes= 0.00D+00 IRadAn=         5 IDoV=-2 UseB2=F ITyADJ=14
 ICtDFT= 12500011 ScaDFX=  1.000000  1.000000  1.000000  1.000000
 Largest valence mixing into a core orbital is  6.80D-05
 Largest core mixing into a valence orbital is  2.39D-05
 Range of M.O.s used for correlation:     2    41
 NBasis=    41 NAE=     5 NBE=     5 NFC=     1 NFV=     0
 NROrb=     40 NOA=     4 NOB=     4 NVA=    36 NVB=    36
 Leave Link  801 at Thu Nov  7 22:50:16 2019, MaxMem=  1310720000 cpu:         0.7
 (Enter /usr/local/gaussian/g09/l906.exe)
 Frozen-core derivative calculation, NFC=   1 NFV=   0.
 FulOut=F Deriv=T AODrv=T NAtomX=     3
   MMem=       30571  MDisk=           4 MDiskD=           4
  W3Min=        8815 MinDsk=       75198 NBas6D=          43
 NBas2D=         997    NTT=         946    LW2=     2040000
    MDV=  1310687474 MDiskM=      422702 NBas2p=         997
 Fully direct method using O(ONN) memory.
 IMap=   1   2   3   4   5
 JobTyp=1 Pass  1:  I=   2 to   5 NPSUse= 20 ParTrn=T ParDer=T DoDerP=T.
 Spin components of T(2) and E(2):
     alpha-alpha T2 =       0.1181875638D-01 E2=     -0.3077906240D-01
     alpha-beta  T2 =       0.1719197215D+00 E2=     -0.2334541128D+00
     beta-beta   T2 =       0.1181875638D-01 E2=     -0.3077906240D-01
 The integrals were generated   1 times.
 ANorm=    0.1093415399D+01
 E2 =    -0.2950122376D+00 EUMP2 =    -0.76031408103563D+02
 Leave Link  906 at Thu Nov  7 22:50:16 2019, MaxMem=  1310720000 cpu:         2.6
 (Enter /usr/local/gaussian/g09/l1002.exe)
 Minotr:  Closed shell wavefunction.
          Computing MP2/KS-MP2 derivatives.
          Using Z-Vector for PSCF gradient.
          Skipping F1 and S1 gradient terms here.
          IDoAtm=111
          Frozen-core window.
          Direct CPHF calculation.
          Differentiating once with respect to electric field.
                with respect to dipole field.
          Differentiating once with respect to nuclear coordinates.
          Using symmetry in CPHF.
          Requested convergence is 1.0D-10 RMS, and 1.0D-09 maximum.
          NewPWx=F KeepS1=T KeepF1=T KeepIn=T MapXYZ=F SortEE=F KeepMc=T.
          MDV=    1310719926 using IRadAn=       0.
 Keep R1 ints in memory in symmetry-blocked form, NReq=1217480.
 FoFCou: FMM=F IPFlag=           0 FMFlag=           0 FMFlg1=           0
         NFxFlg=           0 DoJE=F BraDBF=F KetDBF=F FulRan=T
         wScrn=  0.000000 ICntrl=     600 IOpCl=  0 I1Cent=           0 NGrid=           0
         NMat0=    1 NMatS0=    861 NMatT0=    0 NMatD0=    1 NMtDS0=    0 NMtDT0=    0
 Petite list used in FoFCou.
          Solving linear equations separately, MaxMat=       0.
          There are     1 degrees of freedom in the 1st order CPHF.  IDoFFX=0 NUNeed=     1.
 LinEq1:  Iter=  0 NonCon=     1 RMS=2.76D-02 Max=1.66D-01 NDo=     1
 AX will form     1 AO Fock derivatives at one time.
 LinEq1:  Iter=  1 NonCon=     1 RMS=5.77D-03 Max=2.88D-02 NDo=     1
 LinEq1:  Iter=  2 NonCon=     1 RMS=7.55D-03 Max=8.96D-02 NDo=     1
 LinEq1:  Iter=  3 NonCon=     1 RMS=1.42D-03 Max=7.68D-03 NDo=     1
 LinEq1:  Iter=  4 NonCon=     1 RMS=2.48D-04 Max=2.30D-03 NDo=     1
 LinEq1:  Iter=  5 NonCon=     1 RMS=6.95D-05 Max=4.22D-04 NDo=     1
 LinEq1:  Iter=  6 NonCon=     1 RMS=1.46D-05 Max=8.03D-05 NDo=     1
 LinEq1:  Iter=  7 NonCon=     1 RMS=1.83D-06 Max=8.78D-06 NDo=     1
 LinEq1:  Iter=  8 NonCon=     1 RMS=2.72D-07 Max=1.16D-06 NDo=     1
 LinEq1:  Iter=  9 NonCon=     1 RMS=4.15D-08 Max=1.92D-07 NDo=     1
 LinEq1:  Iter= 10 NonCon=     1 RMS=4.35D-09 Max=1.97D-08 NDo=     1
 LinEq1:  Iter= 11 NonCon=     1 RMS=4.85D-10 Max=1.72D-09 NDo=     1
 LinEq1:  Iter= 12 NonCon=     0 RMS=5.63D-11 Max=2.50D-10 NDo=     1
 Linear equations converged to 1.000D-10 1.000D-09 after    12 iterations.
 End of Minotr F.D. properties file   721 does not exist.
 End of Minotr F.D. properties file   722 does not exist.
 End of Minotr F.D. properties file   788 does not exist.
 Leave Link 1002 at Thu Nov  7 22:50:16 2019, MaxMem=  1310720000 cpu:         3.3
 (Enter /usr/local/gaussian/g09/l701.exe)
 Compute integral first derivatives.
 ... and contract with generalized density number  2.
 Leave Link  701 at Thu Nov  7 22:50:16 2019, MaxMem=  1310720000 cpu:         2.7
 (Enter /usr/local/gaussian/g09/l702.exe)
 L702 exits ... SP integral derivatives will be done elsewhere.
 Leave Link  702 at Thu Nov  7 22:50:16 2019, MaxMem=  1310720000 cpu:         0.5
 (Enter /usr/local/gaussian/g09/l703.exe)
 Compute integral first derivatives, UseDBF=F ICtDFT=           0.
 Integral derivatives from FoFJK, PRISM(SPDF).
 Calling FoFJK, ICntrl=  10002127 FMM=F ISym2X=1 I1Cent= 0 IOpClX= 0 NMat=1 NMatS=1 NMatT=0.
 FoFJK:  IHMeth= 1 ICntrl=10002127 DoSepK=F KAlg= 0 I1Cent=   0 FoldK=F
 IRaf=         0 NMat=   1 IRICut=       1 DoRegI=T DoRafI=F ISym2E= 1.
 FoFCou: FMM=F IPFlag=           0 FMFlag=      100000 FMFlg1=         800
         NFxFlg=           0 DoJE=F BraDBF=F KetDBF=F FulRan=T
         wScrn=  0.000000 ICntrl=10002127 IOpCl=  0 I1Cent=           0 NGrid=           0
         NMat0=    1 NMatS0=      1 NMatT0=    0 NMatD0=    1 NMtDS0=    0 NMtDT0=    0
 Petite list used in FoFCou.
 Leave Link  703 at Thu Nov  7 22:50:16 2019, MaxMem=  1310720000 cpu:         2.5
 (Enter /usr/local/gaussian/g09/l716.exe)
 Dipole        = 1.31577339D-01-1.47104433D+00-5.40792939D-32
 ***** Axes restored to original set *****
 -------------------------------------------------------------------
 Center     Atomic                   Forces (Hartrees/Bohr)
 Number     Number              X              Y              Z
 -------------------------------------------------------------------
      1        1          -0.018344994   -0.000000000   -0.027051776
      2        8           0.027422843    0.000000000    0.010135102
      3        1          -0.009077849    0.000000000    0.016916674
 -------------------------------------------------------------------
 Cartesian Forces:  Max     0.027422843 RMS     0.015957065
 -----------------------------------------------------------------------------------------------
                       Internal Coordinate Forces (Hartree/Bohr or radian)
  Cent   Atom   N1       Length/X         N2         Alpha/Y        N3         Beta/Z          J
 -----------------------------------------------------------------------------------------------
      1  H 
      2  O        1   0.010135(     1)
      3  H        1  -0.014059(     2)      2  -0.049197(     3)
 -----------------------------------------------------------------------------------------------
 Internal  Forces:  Max     0.049196636 RMS     0.030114716
 Leave Link  716 at Thu Nov  7 22:50:16 2019, MaxMem=  1310720000 cpu:         0.5
 (Enter /usr/local/gaussian/g09/l103.exe)

 GradGradGradGradGradGradGradGradGradGradGradGradGradGradGradGradGradGrad
 Berny optimization.
 Search for a local minimum.
 Step number   2 out of a maximum of   20
 All quantities printed in internal units (Hartrees-Bohrs-Radians)
 Update second derivatives using D2CorN and points    1    2
 DE= -9.85D-03 DEPred=-5.73D-03 R= 1.72D+00
 TightC=F SS=  1.41D+00  RLast= 2.17D-01 DXNew= 5.0454D-01 6.5197D-01
 Trust test= 1.72D+00 RLast= 2.17D-01 DXMaxT set to 5.05D-01
 The second derivative matrix:
                          R1        R1p       A1
           R1           0.49955
           R1p         -0.01212   0.02179
           A1          -0.02468  -0.03676  -0.03375
 ITU=  1  0
     Eigenvalues ---   -0.05342   0.04009   0.50092
 Eigenvalue     1 is  -5.34D-02 should be greater than     0.000000 Eigenvector:
                          A1        R1p       R1
   1                    0.89416   0.44498   0.04967
 RFO step:  Lambda=-1.09643533D-01 EMin=-5.34172873D-02
 Quartic linear search produced a step of  2.00000.
 Maximum step size (   0.505) exceeded in Quadratic search.
    -- Step size scaled by   0.492
 Variable       Old X    -DE/DX   Delta X   Delta X   Delta X     New X
                                 (Linear)    (Quad)   (Total)
    R1        1.79400   0.01014  -0.19145   0.08545  -0.10599   1.68801
   R1p        3.76302  -0.01406  -0.03287  -0.24343  -0.27630   3.48672
    A1        1.89998  -0.04920  -0.38883  -0.43359  -0.82241   1.07757
         Item               Value     Threshold  Converged?
 Maximum Force            0.049197     0.000450     NO 
 RMS     Force            0.030115     0.000300     NO 
 Maximum Displacement     0.822411     0.001800     NO 
 RMS     Displacement     0.504625     0.001200     NO 
 Predicted change in Energy=-6.190608D-02
 Lowest energy point so far.  Saving SCF results.
 GradGradGradGradGradGradGradGradGradGradGradGradGradGradGradGradGradGrad

 Leave Link  103 at Thu Nov  7 22:50:16 2019, MaxMem=  1310720000 cpu:         0.2
 (Enter /usr/local/gaussian/g09/l202.exe)
 ---------------------------------------------------------------------------------------------------
                            Z-MATRIX (ANGSTROMS AND DEGREES)
   CD    Cent   Atom    N1       Length/X        N2       Alpha/Y        N3        Beta/Z          J
 ---------------------------------------------------------------------------------------------------
      1      1  H 
      2      2  O        1   0.893255(     1)
      3      3  H        1   1.845091(     2)      2   61.740(     3)
 ---------------------------------------------------------------------------------------------------
                         Z-Matrix orientation:                         
 ---------------------------------------------------------------------
 Center     Atomic      Atomic             Coordinates (Angstroms)
 Number     Number       Type             X           Y           Z
 ---------------------------------------------------------------------
      1          1           0        0.000000    0.000000    0.000000
      2          8           0        0.000000    0.000000    0.893255
      3          1           0        1.625175    0.000000    0.873594
 ---------------------------------------------------------------------
                    Distance matrix (angstroms):
                    1          2          3
     1  H    0.000000
     2  O    0.893255   0.000000
     3  H    1.845091   1.625294   0.000000
 Stoichiometry    H2O
 Framework group  CS[SG(H2O)]
 Deg. of freedom     3
 Full point group                 CS      NOp   2
 RotChk:  IX=0 Diff= 5.91D-01
 Largest Abelian subgroup         CS      NOp   2
 Largest concise Abelian subgroup C1      NOp   1
                         Standard orientation:                         
 ---------------------------------------------------------------------
 Center     Atomic      Atomic             Coordinates (Angstroms)
 Number     Number       Type             X           Y           Z
 ---------------------------------------------------------------------
      1          1           0        0.778794   -0.251073    0.000000
      2          8           0        0.000000    0.186403    0.000000
      3          1           0       -0.778794   -1.240152    0.000000
 ---------------------------------------------------------------------
 Rotational constants (GHZ):    668.4642247    200.9924187    154.5289720
 Leave Link  202 at Thu Nov  7 22:50:17 2019, MaxMem=  1310720000 cpu:         0.0
 (Enter /usr/local/gaussian/g09/l301.exe)
 Standard basis: Aug-CC-pVDZ (5D, 7F)
 Ernie: Thresh=  0.10000D-02 Tol=  0.10000D-05 Strict=F.
 Ernie:  2 primitive shells out of 39 were deleted.
 There are    32 symmetry adapted cartesian basis functions of A'  symmetry.
 There are    11 symmetry adapted cartesian basis functions of A"  symmetry.
 There are    30 symmetry adapted basis functions of A'  symmetry.
 There are    11 symmetry adapted basis functions of A"  symmetry.
    41 basis functions,    65 primitive gaussians,    43 cartesian basis functions
     5 alpha electrons        5 beta electrons
       nuclear repulsion energy         7.6308251860 Hartrees.
 IExCor=    0 DFT=F Ex=HF Corr=None ExCW=0 ScaHFX=  1.000000
 ScaDFX=  1.000000  1.000000  1.000000  1.000000 ScalE2=  1.000000  1.000000
 IRadAn=      0 IRanWt=     -1 IRanGd=            0 ICorTp=0 IEmpDi=  4
 NAtoms=    3 NActive=    3 NUniq=    3 SFac= 1.00D+00 NAtFMM=   60 NAOKFM=F Big=F
 Integral buffers will be    131072 words long.
 Raffenetti 1 integral format.
 Two-electron integral symmetry is turned on.
 Leave Link  301 at Thu Nov  7 22:50:17 2019, MaxMem=  1310720000 cpu:         0.6
 (Enter /usr/local/gaussian/g09/l302.exe)
 NPDir=0 NMtPBC=     1 NCelOv=     1 NCel=       1 NClECP=     1 NCelD=      1
         NCelK=      1 NCelE2=     1 NClLst=     1 CellRange=     0.0.
 One-electron integrals computed using PRISM.
 NBasis=    41 RedAO= T EigKep=  3.74D-03  NBF=    30    11
 NBsUse=    41 1.00D-06 EigRej= -1.00D+00 NBFU=    30    11
 Leave Link  302 at Thu Nov  7 22:50:17 2019, MaxMem=  1310720000 cpu:         2.7
 (Enter /usr/local/gaussian/g09/l303.exe)
 DipDrv:  MaxL=1.
 Leave Link  303 at Thu Nov  7 22:50:17 2019, MaxMem=  1310720000 cpu:         0.5
 (Enter /usr/local/gaussian/g09/l401.exe)
 Initial guess from the checkpoint file:  "/scratch/Gau-15274.chk"
 B after Tr=    -0.000000   -0.000000    0.000000
         Rot=    0.996161   -0.000000    0.000000    0.087544 Ang=  10.04 deg.
 Guess basis will be translated and rotated to current coordinates.
 JPrj=2 DoOrth=T DoCkMO=T.
 Initial guess orbital symmetries:
       Occupied  (A') (A') (A') (A") (A')
       Virtual   (A') (A') (A') (A') (A') (A') (A') (A') (A') (A')
                 (A') (A') (A') (A') (A') (A') (A') (A') (A') (A')
                 (A') (A') (A') (A') (A') (A') (A") (A") (A") (A")
                 (A") (A") (A") (A") (A") (A")
 The electronic state of the initial guess is 1-A'.
 Generating alternative initial guess.
 ExpMin= 2.97D-02 ExpMax= 1.17D+04 ExpMxC= 4.01D+02 IAcc=3 IRadAn=         5 AccDes= 0.00D+00
 Harris functional with IExCor=  205 and IRadAn=       5 diagonalized for initial guess.
 HarFok:  IExCor=  205 AccDes= 0.00D+00 IRadAn=         5 IDoV= 1 UseB2=F ITyADJ=14
 ICtDFT=  3500011 ScaDFX=  1.000000  1.000000  1.000000  1.000000
 FoFCou: FMM=F IPFlag=           0 FMFlag=      100000 FMFlg1=           0
         NFxFlg=           0 DoJE=T BraDBF=F KetDBF=T FulRan=T
         wScrn=  0.000000 ICntrl=     500 IOpCl=  0 I1Cent=   200000004 NGrid=           0
         NMat0=    1 NMatS0=      1 NMatT0=    0 NMatD0=    1 NMtDS0=    0 NMtDT0=    0
 Petite list used in FoFCou.
 Harris En= -76.0160959470950    
 Leave Link  401 at Thu Nov  7 22:50:17 2019, MaxMem=  1310720000 cpu:         3.3
 (Enter /usr/local/gaussian/g09/l502.exe)
 Closed shell SCF:
 Using DIIS extrapolation, IDIIS=  1040.
 Integral symmetry usage will be decided dynamically.
 Keep R1 ints in memory in symmetry-blocked form, NReq=1235396.
 IVT=       25304 IEndB=       25304 NGot=  1310720000 MDV=  1310496581
 LenX=  1310496581 LenY=  1310494291
 Requested convergence on RMS density matrix=1.00D-08 within 128 cycles.
 Requested convergence on MAX density matrix=1.00D-06.
 Requested convergence on             energy=1.00D-06.
 No special actions if energy rises.
 FoFCou: FMM=F IPFlag=           0 FMFlag=           0 FMFlg1=           0
         NFxFlg=           0 DoJE=F BraDBF=F KetDBF=F FulRan=T
         wScrn=  0.000000 ICntrl=     600 IOpCl=  0 I1Cent=           0 NGrid=           0
         NMat0=    1 NMatS0=    861 NMatT0=    0 NMatD0=    1 NMtDS0=    0 NMtDT0=    0
 Petite list used in FoFCou.

 Cycle   1  Pass 1  IDiag  1:
 E= -75.7996289293841    
 DIIS: error= 2.71D-02 at cycle   1 NSaved=   1.
 NSaved= 1 IEnMin= 1 EnMin= -75.7996289293841     IErMin= 1 ErrMin= 2.71D-02
 ErrMax= 2.71D-02  0.00D+00 EMaxC= 1.00D-01 BMatC= 5.45D-02 BMatP= 5.45D-02
 IDIUse=3 WtCom= 7.29D-01 WtEn= 2.71D-01
 Coeff-Com:  0.100D+01
 Coeff-En:   0.100D+01
 Coeff:      0.100D+01
 Recover alternate guess density for next cycle.
 RMSDP=1.19D-02 MaxDP=1.37D-01              OVMax= 0.00D+00

 Cycle   2  Pass 1  IDiag  1:
 E= -75.7416560002106     Delta-E=        0.057972929173 Rises=F Damp=F
 Switch densities from cycles 1 and 2 for lowest energy.
 DIIS: error= 5.39D-02 at cycle   2 NSaved=   2.
 NSaved= 2 IEnMin= 1 EnMin= -75.7996289293841     IErMin= 1 ErrMin= 2.71D-02
 ErrMax= 5.39D-02  0.00D+00 EMaxC= 1.00D+00 BMatC= 1.57D-01 BMatP= 5.45D-02
 IDIUse=1 WtCom= 1.00D+00 WtEn= 0.00D+00
 Coeff-Com:  0.723D+00 0.277D+00
 Coeff:      0.723D+00 0.277D+00
 Gap=     0.741 Goal=   None    Shift=    0.000
 RMSDP=7.05D-03 MaxDP=7.75D-02 DE= 5.80D-02 OVMax= 1.34D-01

 Cycle   3  Pass 1  IDiag  1:
 E= -75.8760365348891     Delta-E=       -0.134380534678 Rises=F Damp=F
 DIIS: error= 1.06D-02 at cycle   3 NSaved=   3.
 NSaved= 3 IEnMin= 3 EnMin= -75.8760365348891     IErMin= 3 ErrMin= 1.06D-02
 ErrMax= 1.06D-02  0.00D+00 EMaxC= 1.00D+00 BMatC= 5.74D-03 BMatP= 5.45D-02
 IDIUse=1 WtCom= 1.00D+00 WtEn= 0.00D+00
 Coeff-Com: -0.118D+00 0.136D+00 0.983D+00
 Coeff:     -0.118D+00 0.136D+00 0.983D+00
 Gap=     0.487 Goal=   None    Shift=    0.000
 RMSDP=1.80D-03 MaxDP=2.44D-02 DE=-1.34D-01 OVMax= 5.31D-02

 Cycle   4  Pass 1  IDiag  1:
 E= -75.8840962001145     Delta-E=       -0.008059665225 Rises=F Damp=F
 DIIS: error= 1.55D-03 at cycle   4 NSaved=   4.
 NSaved= 4 IEnMin= 4 EnMin= -75.8840962001145     IErMin= 4 ErrMin= 1.55D-03
 ErrMax= 1.55D-03  0.00D+00 EMaxC= 1.00D+00 BMatC= 1.35D-04 BMatP= 5.74D-03
 IDIUse=1 WtCom= 1.00D+00 WtEn= 0.00D+00
 Coeff-Com: -0.994D-02-0.221D-01-0.792D-01 0.111D+01
 Coeff:     -0.994D-02-0.221D-01-0.792D-01 0.111D+01
 Gap=     0.493 Goal=   None    Shift=    0.000
 RMSDP=4.05D-04 MaxDP=6.07D-03 DE=-8.06D-03 OVMax= 1.25D-02

 Cycle   5  Pass 1  IDiag  1:
 E= -75.8845184899659     Delta-E=       -0.000422289851 Rises=F Damp=F
 DIIS: error= 6.77D-04 at cycle   5 NSaved=   5.
 NSaved= 5 IEnMin= 5 EnMin= -75.8845184899659     IErMin= 5 ErrMin= 6.77D-04
 ErrMax= 6.77D-04  0.00D+00 EMaxC= 1.00D+00 BMatC= 2.49D-05 BMatP= 1.35D-04
 IDIUse=1 WtCom= 1.00D+00 WtEn= 0.00D+00
 Coeff-Com:  0.893D-02 0.872D-02-0.243D-01-0.550D+00 0.156D+01
 Coeff:      0.893D-02 0.872D-02-0.243D-01-0.550D+00 0.156D+01
 Gap=     0.492 Goal=   None    Shift=    0.000
 RMSDP=2.72D-04 MaxDP=3.39D-03 DE=-4.22D-04 OVMax= 9.42D-03

 Cycle   6  Pass 1  IDiag  1:
 E= -75.8846277762578     Delta-E=       -0.000109286292 Rises=F Damp=F
 DIIS: error= 2.41D-04 at cycle   6 NSaved=   6.
 NSaved= 6 IEnMin= 6 EnMin= -75.8846277762578     IErMin= 6 ErrMin= 2.41D-04
 ErrMax= 2.41D-04  0.00D+00 EMaxC= 1.00D+00 BMatC= 2.26D-06 BMatP= 2.49D-05
 IDIUse=1 WtCom= 1.00D+00 WtEn= 0.00D+00
 Coeff-Com: -0.388D-02-0.374D-02 0.150D-01 0.281D+00-0.107D+01 0.178D+01
 Coeff:     -0.388D-02-0.374D-02 0.150D-01 0.281D+00-0.107D+01 0.178D+01
 Gap=     0.492 Goal=   None    Shift=    0.000
 RMSDP=1.09D-04 MaxDP=1.65D-03 DE=-1.09D-04 OVMax= 3.46D-03

 Cycle   7  Pass 1  IDiag  1:
 E= -75.8846395241997     Delta-E=       -0.000011747942 Rises=F Damp=F
 DIIS: error= 3.63D-05 at cycle   7 NSaved=   7.
 NSaved= 7 IEnMin= 7 EnMin= -75.8846395241997     IErMin= 7 ErrMin= 3.63D-05
 ErrMax= 3.63D-05  0.00D+00 EMaxC= 1.00D+00 BMatC= 4.06D-08 BMatP= 2.26D-06
 IDIUse=1 WtCom= 1.00D+00 WtEn= 0.00D+00
 Coeff-Com:  0.102D-02 0.866D-03-0.437D-02-0.664D-01 0.282D+00-0.564D+00
 Coeff-Com:  0.135D+01
 Coeff:      0.102D-02 0.866D-03-0.437D-02-0.664D-01 0.282D+00-0.564D+00
 Coeff:      0.135D+01
 Gap=     0.492 Goal=   None    Shift=    0.000
 RMSDP=1.06D-05 MaxDP=1.62D-04 DE=-1.17D-05 OVMax= 3.74D-04

 Cycle   8  Pass 1  IDiag  1:
 E= -75.8846396928579     Delta-E=       -0.000000168658 Rises=F Damp=F
 DIIS: error= 7.49D-06 at cycle   8 NSaved=   8.
 NSaved= 8 IEnMin= 8 EnMin= -75.8846396928579     IErMin= 8 ErrMin= 7.49D-06
 ErrMax= 7.49D-06  0.00D+00 EMaxC= 1.00D+00 BMatC= 1.81D-09 BMatP= 4.06D-08
 IDIUse=1 WtCom= 1.00D+00 WtEn= 0.00D+00
 Coeff-Com: -0.120D-03-0.113D-03 0.558D-03 0.914D-02-0.441D-01 0.103D+00
 Coeff-Com: -0.411D+00 0.134D+01
 Coeff:     -0.120D-03-0.113D-03 0.558D-03 0.914D-02-0.441D-01 0.103D+00
 Coeff:     -0.411D+00 0.134D+01
 Gap=     0.492 Goal=   None    Shift=    0.000
 RMSDP=1.71D-06 MaxDP=2.53D-05 DE=-1.69D-07 OVMax= 5.90D-05

 Cycle   9  Pass 1  IDiag  1:
 E= -75.8846396984414     Delta-E=       -0.000000005583 Rises=F Damp=F
 DIIS: error= 1.36D-06 at cycle   9 NSaved=   9.
 NSaved= 9 IEnMin= 9 EnMin= -75.8846396984414     IErMin= 9 ErrMin= 1.36D-06
 ErrMax= 1.36D-06  0.00D+00 EMaxC= 1.00D+00 BMatC= 6.00D-11 BMatP= 1.81D-09
 IDIUse=1 WtCom= 1.00D+00 WtEn= 0.00D+00
 Coeff-Com:  0.133D-07-0.110D-04 0.381D-04 0.443D-03-0.129D-02 0.143D-02
 Coeff-Com:  0.180D-01-0.192D+00 0.117D+01
 Coeff:      0.133D-07-0.110D-04 0.381D-04 0.443D-03-0.129D-02 0.143D-02
 Coeff:      0.180D-01-0.192D+00 0.117D+01
 Gap=     0.492 Goal=   None    Shift=    0.000
 RMSDP=3.52D-07 MaxDP=4.43D-06 DE=-5.58D-09 OVMax= 8.34D-06

 Cycle  10  Pass 1  IDiag  1:
 E= -75.8846396986438     Delta-E=       -0.000000000202 Rises=F Damp=F
 DIIS: error= 4.61D-07 at cycle  10 NSaved=  10.
 NSaved=10 IEnMin=10 EnMin= -75.8846396986438     IErMin=10 ErrMin= 4.61D-07
 ErrMax= 4.61D-07  0.00D+00 EMaxC= 1.00D+00 BMatC= 4.84D-12 BMatP= 6.00D-11
 IDIUse=1 WtCom= 1.00D+00 WtEn= 0.00D+00
 Coeff-Com:  0.487D-05 0.747D-05-0.285D-04-0.446D-03 0.199D-02-0.449D-02
 Coeff-Com:  0.161D-01-0.354D-01-0.222D+00 0.124D+01
 Coeff:      0.487D-05 0.747D-05-0.285D-04-0.446D-03 0.199D-02-0.449D-02
 Coeff:      0.161D-01-0.354D-01-0.222D+00 0.124D+01
 Gap=     0.492 Goal=   None    Shift=    0.000
 RMSDP=9.95D-08 MaxDP=1.52D-06 DE=-2.02D-10 OVMax= 2.37D-06

 Cycle  11  Pass 1  IDiag  1:
 E= -75.8846396986611     Delta-E=       -0.000000000017 Rises=F Damp=F
 DIIS: error= 1.15D-07 at cycle  11 NSaved=  11.
 NSaved=11 IEnMin=11 EnMin= -75.8846396986611     IErMin=11 ErrMin= 1.15D-07
 ErrMax= 1.15D-07  0.00D+00 EMaxC= 1.00D+00 BMatC= 4.81D-13 BMatP= 4.84D-12
 IDIUse=1 WtCom= 1.00D+00 WtEn= 0.00D+00
 Coeff-Com:  0.708D-07-0.140D-05-0.118D-05 0.806D-04-0.325D-03 0.814D-03
 Coeff-Com: -0.460D-02 0.188D-01 0.171D-01-0.527D+00 0.150D+01
 Coeff:      0.708D-07-0.140D-05-0.118D-05 0.806D-04-0.325D-03 0.814D-03
 Coeff:     -0.460D-02 0.188D-01 0.171D-01-0.527D+00 0.150D+01
 Gap=     0.492 Goal=   None    Shift=    0.000
 RMSDP=3.50D-08 MaxDP=4.71D-07 DE=-1.73D-11 OVMax= 9.58D-07

 Cycle  12  Pass 1  IDiag  1:
 E= -75.8846396986627     Delta-E=       -0.000000000002 Rises=F Damp=F
 DIIS: error= 1.41D-08 at cycle  12 NSaved=  12.
 NSaved=12 IEnMin=12 EnMin= -75.8846396986627     IErMin=12 ErrMin= 1.41D-08
 ErrMax= 1.41D-08  0.00D+00 EMaxC= 1.00D+00 BMatC= 9.69D-15 BMatP= 4.81D-13
 IDIUse=1 WtCom= 1.00D+00 WtEn= 0.00D+00
 Coeff-Com: -0.116D-06-0.318D-08 0.515D-06 0.338D-05-0.103D-04 0.172D-05
 Coeff-Com:  0.392D-03-0.286D-02 0.238D-02 0.758D-01-0.318D+00 0.124D+01
 Coeff:     -0.116D-06-0.318D-08 0.515D-06 0.338D-05-0.103D-04 0.172D-05
 Coeff:      0.392D-03-0.286D-02 0.238D-02 0.758D-01-0.318D+00 0.124D+01
 Gap=     0.492 Goal=   None    Shift=    0.000
 RMSDP=4.64D-09 MaxDP=5.01D-08 DE=-1.66D-12 OVMax= 9.83D-08

 SCF Done:  E(RHF) =  -75.8846396987     A.U. after   12 cycles
            NFock= 12  Conv=0.46D-08     -V/T= 2.0044
 KE= 7.555417231586D+01 PE=-1.953956864335D+02 EE= 3.632604923299D+01
 Leave Link  502 at Thu Nov  7 22:50:17 2019, MaxMem=  1310720000 cpu:         2.3
 (Enter /usr/local/gaussian/g09/l801.exe)
 ExpMin= 2.97D-02 ExpMax= 1.17D+04 ExpMxC= 4.01D+02 IAcc=3 IRadAn=         5 AccDes= 0.00D+00
 HarFok:  IExCor=  205 AccDes= 0.00D+00 IRadAn=         5 IDoV=-2 UseB2=F ITyADJ=14
 ICtDFT= 12500011 ScaDFX=  1.000000  1.000000  1.000000  1.000000
 Largest valence mixing into a core orbital is  6.64D-05
 Largest core mixing into a valence orbital is  2.12D-05
 Range of M.O.s used for correlation:     2    41
 NBasis=    41 NAE=     5 NBE=     5 NFC=     1 NFV=     0
 NROrb=     40 NOA=     4 NOB=     4 NVA=    36 NVB=    36
 Leave Link  801 at Thu Nov  7 22:50:17 2019, MaxMem=  1310720000 cpu:         0.8
 (Enter /usr/local/gaussian/g09/l906.exe)
 Frozen-core derivative calculation, NFC=   1 NFV=   0.
 FulOut=F Deriv=T AODrv=T NAtomX=     3
   MMem=       30571  MDisk=           4 MDiskD=           4
  W3Min=        8815 MinDsk=       75198 NBas6D=          43
 NBas2D=         997    NTT=         946    LW2=     2040000
    MDV=  1310687264 MDiskM=      422702 NBas2p=         997
 Fully direct method using O(ONN) memory.
 IMap=   1   2   3   4   5
 JobTyp=1 Pass  1:  I=   2 to   5 NPSUse= 20 ParTrn=T ParDer=T DoDerP=T.
 Spin components of T(2) and E(2):
     alpha-alpha T2 =       0.9768254337D-02 E2=     -0.2965613527D-01
     alpha-beta  T2 =       0.7092462844D-01 E2=     -0.1866002356D+00
     beta-beta   T2 =       0.9768254337D-02 E2=     -0.2965613527D-01
 The integrals were generated   1 times.
 ANorm=    0.1044251472D+01
 E2 =    -0.2459125061D+00 EUMP2 =    -0.76130552204806D+02
 Leave Link  906 at Thu Nov  7 22:50:17 2019, MaxMem=  1310720000 cpu:         2.6
 (Enter /usr/local/gaussian/g09/l1002.exe)
 Minotr:  Closed shell wavefunction.
          Computing MP2/KS-MP2 derivatives.
          Using Z-Vector for PSCF gradient.
          Skipping F1 and S1 gradient terms here.
          IDoAtm=111
          Frozen-core window.
          Direct CPHF calculation.
          Differentiating once with respect to electric field.
                with respect to dipole field.
          Differentiating once with respect to nuclear coordinates.
          Using symmetry in CPHF.
          Requested convergence is 1.0D-10 RMS, and 1.0D-09 maximum.
          NewPWx=F KeepS1=T KeepF1=T KeepIn=T MapXYZ=F SortEE=F KeepMc=T.
          MDV=    1310719926 using IRadAn=       0.
 Keep R1 ints in memory in symmetry-blocked form, NReq=1217765.
 FoFCou: FMM=F IPFlag=           0 FMFlag=           0 FMFlg1=           0
         NFxFlg=           0 DoJE=F BraDBF=F KetDBF=F FulRan=T
         wScrn=  0.000000 ICntrl=     600 IOpCl=  0 I1Cent=           0 NGrid=           0
         NMat0=    1 NMatS0=    861 NMatT0=    0 NMatD0=    1 NMtDS0=    0 NMtDT0=    0
 Petite list used in FoFCou.
          Solving linear equations separately, MaxMat=       0.
          There are     1 degrees of freedom in the 1st order CPHF.  IDoFFX=0 NUNeed=     1.
 LinEq1:  Iter=  0 NonCon=     1 RMS=1.29D-02 Max=1.01D-01 NDo=     1
 AX will form     1 AO Fock derivatives at one time.
 LinEq1:  Iter=  1 NonCon=     1 RMS=4.02D-03 Max=4.06D-02 NDo=     1
 LinEq1:  Iter=  2 NonCon=     1 RMS=1.38D-03 Max=8.66D-03 NDo=     1
 LinEq1:  Iter=  3 NonCon=     1 RMS=2.78D-04 Max=1.76D-03 NDo=     1
 LinEq1:  Iter=  4 NonCon=     1 RMS=4.56D-05 Max=2.98D-04 NDo=     1
 LinEq1:  Iter=  5 NonCon=     1 RMS=5.24D-06 Max=2.18D-05 NDo=     1
 LinEq1:  Iter=  6 NonCon=     1 RMS=8.88D-07 Max=3.46D-06 NDo=     1
 LinEq1:  Iter=  7 NonCon=     1 RMS=1.19D-07 Max=6.81D-07 NDo=     1
 LinEq1:  Iter=  8 NonCon=     1 RMS=2.55D-08 Max=1.54D-07 NDo=     1
 LinEq1:  Iter=  9 NonCon=     1 RMS=5.37D-09 Max=2.33D-08 NDo=     1
 LinEq1:  Iter= 10 NonCon=     1 RMS=7.43D-10 Max=3.07D-09 NDo=     1
 LinEq1:  Iter= 11 NonCon=     0 RMS=7.68D-11 Max=3.53D-10 NDo=     1
 Linear equations converged to 1.000D-10 1.000D-09 after    11 iterations.
 End of Minotr F.D. properties file   721 does not exist.
 End of Minotr F.D. properties file   722 does not exist.
 End of Minotr F.D. properties file   788 does not exist.
 Leave Link 1002 at Thu Nov  7 22:50:17 2019, MaxMem=  1310720000 cpu:         3.3
 (Enter /usr/local/gaussian/g09/l701.exe)
 Compute integral first derivatives.
 ... and contract with generalized density number  2.
 Leave Link  701 at Thu Nov  7 22:50:18 2019, MaxMem=  1310720000 cpu:         2.7
 (Enter /usr/local/gaussian/g09/l702.exe)
 L702 exits ... SP integral derivatives will be done elsewhere.
 Leave Link  702 at Thu Nov  7 22:50:18 2019, MaxMem=  1310720000 cpu:         0.5
 (Enter /usr/local/gaussian/g09/l703.exe)
 Compute integral first derivatives, UseDBF=F ICtDFT=           0.
 Integral derivatives from FoFJK, PRISM(SPDF).
 Calling FoFJK, ICntrl=  10002127 FMM=F ISym2X=1 I1Cent= 0 IOpClX= 0 NMat=1 NMatS=1 NMatT=0.
 FoFJK:  IHMeth= 1 ICntrl=10002127 DoSepK=F KAlg= 0 I1Cent=   0 FoldK=F
 IRaf=         0 NMat=   1 IRICut=       1 DoRegI=T DoRafI=F ISym2E= 1.
 FoFCou: FMM=F IPFlag=           0 FMFlag=      100000 FMFlg1=         800
         NFxFlg=           0 DoJE=F BraDBF=F KetDBF=F FulRan=T
         wScrn=  0.000000 ICntrl=10002127 IOpCl=  0 I1Cent=           0 NGrid=           0
         NMat0=    1 NMatS0=      1 NMatT0=    0 NMatD0=    1 NMtDS0=    0 NMtDT0=    0
 Petite list used in FoFCou.
 Leave Link  703 at Thu Nov  7 22:50:18 2019, MaxMem=  1310720000 cpu:         2.6
 (Enter /usr/local/gaussian/g09/l716.exe)
 Dipole        = 1.17089699D-01-9.11098501D-01 0.00000000D+00
 ***** Axes restored to original set *****
 -------------------------------------------------------------------
 Center     Atomic                   Forces (Hartrees/Bohr)
 Number     Number              X              Y              Z
[...]
 Number     Number       Type             X           Y           Z
 ---------------------------------------------------------------------
      1          1           0        0.596276   -0.256627   -0.000000
      2          8           0        0.000000   -0.093680   -0.000000
      3          1           0       -0.596276    1.006069    0.000000
 ---------------------------------------------------------------------
 Rotational constants (GHZ):   3146.1965807    288.4248598    264.2041702
 Leave Link  202 at Thu Nov  7 22:50:20 2019, MaxMem=  1310720000 cpu:         0.0
 (Enter /usr/local/gaussian/g09/l301.exe)
 Standard basis: Aug-CC-pVDZ (5D, 7F)
 Ernie: Thresh=  0.10000D-02 Tol=  0.10000D-05 Strict=F.
 Ernie:  2 primitive shells out of 39 were deleted.
 There are    32 symmetry adapted cartesian basis functions of A'  symmetry.
 There are    11 symmetry adapted cartesian basis functions of A"  symmetry.
 There are    30 symmetry adapted basis functions of A'  symmetry.
 There are    11 symmetry adapted basis functions of A"  symmetry.
    41 basis functions,    65 primitive gaussians,    43 cartesian basis functions
     5 alpha electrons        5 beta electrons
       nuclear repulsion energy        10.5373497189 Hartrees.
 IExCor=    0 DFT=F Ex=HF Corr=None ExCW=0 ScaHFX=  1.000000
 ScaDFX=  1.000000  1.000000  1.000000  1.000000 ScalE2=  1.000000  1.000000
 IRadAn=      0 IRanWt=     -1 IRanGd=            0 ICorTp=0 IEmpDi=  4
 NAtoms=    3 NActive=    3 NUniq=    3 SFac= 1.00D+00 NAtFMM=   60 NAOKFM=F Big=F
 Integral buffers will be    131072 words long.
 Raffenetti 1 integral format.
 Two-electron integral symmetry is turned on.
 Leave Link  301 at Thu Nov  7 22:50:20 2019, MaxMem=  1310720000 cpu:         0.6
 (Enter /usr/local/gaussian/g09/l302.exe)
 NPDir=0 NMtPBC=     1 NCelOv=     1 NCel=       1 NClECP=     1 NCelD=      1
         NCelK=      1 NCelE2=     1 NClLst=     1 CellRange=     0.0.
 One-electron integrals computed using PRISM.
 NBasis=    41 RedAO= T EigKep=  2.73D-03  NBF=    30    11
 NBsUse=    41 1.00D-06 EigRej= -1.00D+00 NBFU=    30    11
 Leave Link  302 at Thu Nov  7 22:50:21 2019, MaxMem=  1310720000 cpu:         2.7
 (Enter /usr/local/gaussian/g09/l303.exe)
 DipDrv:  MaxL=1.
 Leave Link  303 at Thu Nov  7 22:50:21 2019, MaxMem=  1310720000 cpu:         0.5
 (Enter /usr/local/gaussian/g09/l401.exe)
 Initial guess from the checkpoint file:  "/scratch/Gau-15274.chk"
 B after Tr=     0.000000   -0.000000    0.000000
         Rot=    0.000000   -0.407512    0.913200   -0.000000 Ang=-180.00 deg.
 Guess basis will be translated and rotated to current coordinates.
 JPrj=2 DoOrth=T DoCkMO=T.
 Initial guess orbital symmetries:
       Occupied  (A') (A') (A') (A') (A")
       Virtual   (A') (A') (A') (A') (A') (A') (A') (A') (A') (A')
                 (A') (A') (A') (A') (A') (A') (A') (A') (A') (A')
                 (A') (A') (A') (A') (A') (A') (A") (A") (A") (A")
                 (A") (A") (A") (A") (A") (A")
 The electronic state of the initial guess is 1-A'.
 Generating alternative initial guess.
 ExpMin= 2.97D-02 ExpMax= 1.17D+04 ExpMxC= 4.01D+02 IAcc=3 IRadAn=         5 AccDes= 0.00D+00
 Harris functional with IExCor=  205 and IRadAn=       5 diagonalized for initial guess.
 HarFok:  IExCor=  205 AccDes= 0.00D+00 IRadAn=         5 IDoV= 1 UseB2=F ITyADJ=14
 ICtDFT=  3500011 ScaDFX=  1.000000  1.000000  1.000000  1.000000
 FoFCou: FMM=F IPFlag=           0 FMFlag=      100000 FMFlg1=           0
         NFxFlg=           0 DoJE=T BraDBF=F KetDBF=T FulRan=T
         wScrn=  0.000000 ICntrl=     500 IOpCl=  0 I1Cent=   200000004 NGrid=           0
         NMat0=    1 NMatS0=      1 NMatT0=    0 NMatD0=    1 NMtDS0=    0 NMtDT0=    0
 Petite list used in FoFCou.
 Harris En= -75.8481438574274    
 Leave Link  401 at Thu Nov  7 22:50:21 2019, MaxMem=  1310720000 cpu:         3.3
 (Enter /usr/local/gaussian/g09/l502.exe)
 Closed shell SCF:
 Using DIIS extrapolation, IDIIS=  1040.
 Integral symmetry usage will be decided dynamically.
 Keep R1 ints in memory in symmetry-blocked form, NReq=1235522.
 IVT=       25304 IEndB=       25304 NGot=  1310720000 MDV=  1310496581
 LenX=  1310496581 LenY=  1310494291
 Requested convergence on RMS density matrix=1.00D-08 within 128 cycles.
 Requested convergence on MAX density matrix=1.00D-06.
 Requested convergence on             energy=1.00D-06.
 No special actions if energy rises.
 FoFCou: FMM=F IPFlag=           0 FMFlag=           0 FMFlg1=           0
         NFxFlg=           0 DoJE=F BraDBF=F KetDBF=F FulRan=T
         wScrn=  0.000000 ICntrl=     600 IOpCl=  0 I1Cent=           0 NGrid=           0
         NMat0=    1 NMatS0=    861 NMatT0=    0 NMatD0=    1 NMtDS0=    0 NMtDT0=    0
 Petite list used in FoFCou.

 Cycle   1  Pass 1  IDiag  1:
 E= -75.2821294837691    
 DIIS: error= 6.67D-02 at cycle   1 NSaved=   1.
 NSaved= 1 IEnMin= 1 EnMin= -75.2821294837691     IErMin= 1 ErrMin= 6.67D-02
 ErrMax= 6.67D-02  0.00D+00 EMaxC= 1.00D-01 BMatC= 4.00D-01 BMatP= 4.00D-01
 IDIUse=3 WtCom= 3.33D-01 WtEn= 6.67D-01
 Coeff-Com:  0.100D+01
 Coeff-En:   0.100D+01
 Coeff:      0.100D+01
 Recover alternate guess density for next cycle.
 RMSDP=2.69D-02 MaxDP=4.27D-01              OVMax= 0.00D+00

 Cycle   2  Pass 1  IDiag  1:
 E= -75.4914957693083     Delta-E=       -0.209366285539 Rises=F Damp=F
 DIIS: error= 6.99D-02 at cycle   2 NSaved=   2.
 NSaved= 2 IEnMin= 2 EnMin= -75.4914957693083     IErMin= 1 ErrMin= 6.67D-02
 ErrMax= 6.99D-02  0.00D+00 EMaxC= 1.00D-01 BMatC= 2.58D-01 BMatP= 4.00D-01
 IDIUse=3 WtCom= 3.01D-01 WtEn= 6.99D-01
 Coeff-Com:  0.394D+00 0.606D+00
 Coeff-En:   0.000D+00 0.100D+01
 Coeff:      0.118D+00 0.882D+00
 Gap=     0.756 Goal=   None    Shift=    0.000
 RMSDP=9.85D-03 MaxDP=1.95D-01 DE=-2.09D-01 OVMax= 2.93D-01

 Cycle   3  Pass 1  IDiag  1:
 E= -75.6204203347454     Delta-E=       -0.128924565437 Rises=F Damp=F
 DIIS: error= 5.19D-02 at cycle   3 NSaved=   3.
 NSaved= 3 IEnMin= 3 EnMin= -75.6204203347454     IErMin= 3 ErrMin= 5.19D-02
 ErrMax= 5.19D-02  0.00D+00 EMaxC= 1.00D-01 BMatC= 8.55D-02 BMatP= 2.58D-01
 IDIUse=3 WtCom= 4.81D-01 WtEn= 5.19D-01
 Coeff-Com: -0.156D-02 0.358D+00 0.644D+00
 Coeff-En:   0.000D+00 0.119D+00 0.881D+00
 Coeff:     -0.751D-03 0.234D+00 0.767D+00
 Gap=     0.569 Goal=   None    Shift=    0.000
 RMSDP=4.41D-03 MaxDP=7.87D-02 DE=-1.29D-01 OVMax= 8.59D-02

 Cycle   4  Pass 1  IDiag  1:
 E= -75.6769807076102     Delta-E=       -0.056560372865 Rises=F Damp=F
 DIIS: error= 1.07D-02 at cycle   4 NSaved=   4.
 NSaved= 4 IEnMin= 4 EnMin= -75.6769807076102     IErMin= 4 ErrMin= 1.07D-02
 ErrMax= 1.07D-02  0.00D+00 EMaxC= 1.00D-01 BMatC= 5.34D-03 BMatP= 8.55D-02
 IDIUse=3 WtCom= 8.93D-01 WtEn= 1.07D-01
 Coeff-Com: -0.121D-01-0.414D-01 0.154D+00 0.899D+00
 Coeff-En:   0.000D+00 0.000D+00 0.000D+00 0.100D+01
 Coeff:     -0.108D-01-0.370D-01 0.138D+00 0.910D+00
 Gap=     0.526 Goal=   None    Shift=    0.000
 RMSDP=1.07D-03 MaxDP=2.32D-02 DE=-5.66D-02 OVMax= 2.64D-02

 Cycle   5  Pass 1  IDiag  1:
 E= -75.6810680588373     Delta-E=       -0.004087351227 Rises=F Damp=F
 DIIS: error= 1.66D-03 at cycle   5 NSaved=   5.
 NSaved= 5 IEnMin= 5 EnMin= -75.6810680588373     IErMin= 5 ErrMin= 1.66D-03
 ErrMax= 1.66D-03  0.00D+00 EMaxC= 1.00D-01 BMatC= 7.69D-05 BMatP= 5.34D-03
 IDIUse=3 WtCom= 9.83D-01 WtEn= 1.66D-02
 Coeff-Com:  0.501D-02 0.127D-01-0.979D-01-0.352D+00 0.143D+01
 Coeff-En:   0.000D+00 0.000D+00 0.000D+00 0.000D+00 0.100D+01
 Coeff:      0.493D-02 0.125D-01-0.963D-01-0.347D+00 0.143D+01
 Gap=     0.533 Goal=   None    Shift=    0.000
 RMSDP=3.18D-04 MaxDP=3.38D-03 DE=-4.09D-03 OVMax= 8.68D-03

 Cycle   6  Pass 1  IDiag  1:
 E= -75.6812366682388     Delta-E=       -0.000168609401 Rises=F Damp=F
 DIIS: error= 2.86D-04 at cycle   6 NSaved=   6.
 NSaved= 6 IEnMin= 6 EnMin= -75.6812366682388     IErMin= 6 ErrMin= 2.86D-04
 ErrMax= 2.86D-04  0.00D+00 EMaxC= 1.00D-01 BMatC= 4.02D-06 BMatP= 7.69D-05
 IDIUse=3 WtCom= 9.97D-01 WtEn= 2.86D-03
 Coeff-Com: -0.939D-03 0.106D-02 0.130D-01 0.184D-01-0.461D+00 0.143D+01
 Coeff-En:   0.000D+00 0.000D+00 0.000D+00 0.000D+00 0.000D+00 0.100D+01
 Coeff:     -0.936D-03 0.105D-02 0.129D-01 0.183D-01-0.460D+00 0.143D+01
 Gap=     0.534 Goal=   None    Shift=    0.000
 RMSDP=1.29D-04 MaxDP=1.72D-03 DE=-1.69D-04 OVMax= 3.92D-03

 Cycle   7  Pass 1  IDiag  1:
 E= -75.6812534187348     Delta-E=       -0.000016750496 Rises=F Damp=F
 DIIS: error= 6.18D-05 at cycle   7 NSaved=   7.
 NSaved= 7 IEnMin= 7 EnMin= -75.6812534187348     IErMin= 7 ErrMin= 6.18D-05
 ErrMax= 6.18D-05  0.00D+00 EMaxC= 1.00D-01 BMatC= 1.54D-07 BMatP= 4.02D-06
 IDIUse=1 WtCom= 1.00D+00 WtEn= 0.00D+00
 Coeff-Com:  0.147D-03-0.602D-03-0.635D-03 0.827D-02 0.103D+00-0.527D+00
 Coeff-Com:  0.142D+01
 Coeff:      0.147D-03-0.602D-03-0.635D-03 0.827D-02 0.103D+00-0.527D+00
 Coeff:      0.142D+01
 Gap=     0.534 Goal=   None    Shift=    0.000
 RMSDP=2.21D-05 MaxDP=2.28D-04 DE=-1.68D-05 OVMax= 6.34D-04

 Cycle   8  Pass 1  IDiag  1:
 E= -75.6812539522290     Delta-E=       -0.000000533494 Rises=F Damp=F
 DIIS: error= 1.62D-05 at cycle   8 NSaved=   8.
 NSaved= 8 IEnMin= 8 EnMin= -75.6812539522290     IErMin= 8 ErrMin= 1.62D-05
 ErrMax= 1.62D-05  0.00D+00 EMaxC= 1.00D-01 BMatC= 6.26D-09 BMatP= 1.54D-07
 IDIUse=1 WtCom= 1.00D+00 WtEn= 0.00D+00
 Coeff-Com: -0.106D-04 0.257D-03-0.635D-03-0.570D-02-0.140D-01 0.137D+00
 Coeff-Com: -0.563D+00 0.145D+01
 Coeff:     -0.106D-04 0.257D-03-0.635D-03-0.570D-02-0.140D-01 0.137D+00
 Coeff:     -0.563D+00 0.145D+01
 Gap=     0.534 Goal=   None    Shift=    0.000
 RMSDP=4.26D-06 MaxDP=5.04D-05 DE=-5.33D-07 OVMax= 9.84D-05

 Cycle   9  Pass 1  IDiag  1:
 E= -75.6812539713231     Delta-E=       -0.000000019094 Rises=F Damp=F
 DIIS: error= 2.05D-06 at cycle   9 NSaved=   9.
 NSaved= 9 IEnMin= 9 EnMin= -75.6812539713231     IErMin= 9 ErrMin= 2.05D-06
 ErrMax= 2.05D-06  0.00D+00 EMaxC= 1.00D-01 BMatC= 1.74D-10 BMatP= 6.26D-09
 IDIUse=1 WtCom= 1.00D+00 WtEn= 0.00D+00
 Coeff-Com: -0.239D-05-0.440D-04 0.178D-03 0.129D-02 0.389D-04-0.184D-01
 Coeff-Com:  0.105D+00-0.389D+00 0.130D+01
 Coeff:     -0.239D-05-0.440D-04 0.178D-03 0.129D-02 0.389D-04-0.184D-01
 Coeff:      0.105D+00-0.389D+00 0.130D+01
 Gap=     0.534 Goal=   None    Shift=    0.000
 RMSDP=5.80D-07 MaxDP=6.10D-06 DE=-1.91D-08 OVMax= 1.21D-05

 Cycle  10  Pass 1  IDiag  1:
 E= -75.6812539716690     Delta-E=       -0.000000000346 Rises=F Damp=F
 DIIS: error= 3.60D-07 at cycle  10 NSaved=  10.
 NSaved=10 IEnMin=10 EnMin= -75.6812539716690     IErMin=10 ErrMin= 3.60D-07
 ErrMax= 3.60D-07  0.00D+00 EMaxC= 1.00D-01 BMatC= 2.64D-12 BMatP= 1.74D-10
 IDIUse=1 WtCom= 1.00D+00 WtEn= 0.00D+00
 Coeff-Com: -0.357D-06-0.225D-05 0.109D-04 0.379D-04 0.156D-03-0.114D-02
 Coeff-Com:  0.255D-02 0.562D-02-0.129D+00 0.112D+01
 Coeff:     -0.357D-06-0.225D-05 0.109D-04 0.379D-04 0.156D-03-0.114D-02
 Coeff:      0.255D-02 0.562D-02-0.129D+00 0.112D+01
 Gap=     0.534 Goal=   None    Shift=    0.000
 RMSDP=5.17D-08 MaxDP=5.73D-07 DE=-3.46D-10 OVMax= 9.93D-07

 Cycle  11  Pass 1  IDiag  1:
 E= -75.6812539716737     Delta-E=       -0.000000000005 Rises=F Damp=F
 DIIS: error= 7.82D-08 at cycle  11 NSaved=  11.
 NSaved=11 IEnMin=11 EnMin= -75.6812539716737     IErMin=11 ErrMin= 7.82D-08
 ErrMax= 7.82D-08  0.00D+00 EMaxC= 1.00D-01 BMatC= 8.71D-14 BMatP= 2.64D-12
 IDIUse=1 WtCom= 1.00D+00 WtEn= 0.00D+00
 Coeff-Com:  0.219D-06 0.140D-05-0.695D-05-0.349D-04 0.248D-04 0.425D-03
 Coeff-Com: -0.221D-02 0.663D-02-0.669D-02-0.232D+00 0.123D+01
 Coeff:      0.219D-06 0.140D-05-0.695D-05-0.349D-04 0.248D-04 0.425D-03
 Coeff:     -0.221D-02 0.663D-02-0.669D-02-0.232D+00 0.123D+01
 Gap=     0.534 Goal=   None    Shift=    0.000
 RMSDP=1.39D-08 MaxDP=1.94D-07 DE=-4.69D-12 OVMax= 3.32D-07

 Cycle  12  Pass 1  IDiag  1:
 E= -75.6812539716740     Delta-E=       -0.000000000000 Rises=F Damp=F
 DIIS: error= 1.37D-08 at cycle  12 NSaved=  12.
 NSaved=12 IEnMin=12 EnMin= -75.6812539716740     IErMin=12 ErrMin= 1.37D-08
 ErrMax= 1.37D-08  0.00D+00 EMaxC= 1.00D-01 BMatC= 6.74D-15 BMatP= 8.71D-14
 IDIUse=1 WtCom= 1.00D+00 WtEn= 0.00D+00
 Coeff-Com: -0.394D-07-0.238D-06 0.114D-05 0.780D-05-0.150D-04-0.751D-04
 Coeff-Com:  0.582D-03-0.249D-02 0.977D-02-0.471D-02-0.262D+00 0.126D+01
 Coeff:     -0.394D-07-0.238D-06 0.114D-05 0.780D-05-0.150D-04-0.751D-04
 Coeff:      0.582D-03-0.249D-02 0.977D-02-0.471D-02-0.262D+00 0.126D+01
 Gap=     0.534 Goal=   None    Shift=    0.000
 RMSDP=3.43D-09 MaxDP=3.82D-08 DE=-2.84D-13 OVMax= 8.35D-08

 SCF Done:  E(RHF) =  -75.6812539717     A.U. after   12 cycles
            NFock= 12  Conv=0.34D-08     -V/T= 1.9849
 KE= 7.684169522764D+01 PE=-2.016927548818D+02 EE= 3.863245596360D+01
 Leave Link  502 at Thu Nov  7 22:50:21 2019, MaxMem=  1310720000 cpu:         2.6
 (Enter /usr/local/gaussian/g09/l801.exe)
 ExpMin= 2.97D-02 ExpMax= 1.17D+04 ExpMxC= 4.01D+02 IAcc=3 IRadAn=         5 AccDes= 0.00D+00
 HarFok:  IExCor=  205 AccDes= 0.00D+00 IRadAn=         5 IDoV=-2 UseB2=F ITyADJ=14
 ICtDFT= 12500011 ScaDFX=  1.000000  1.000000  1.000000  1.000000
 Largest valence mixing into a core orbital is  5.28D-05
 Largest core mixing into a valence orbital is  1.24D-05
 Range of M.O.s used for correlation:     2    41
 NBasis=    41 NAE=     5 NBE=     5 NFC=     1 NFV=     0
 NROrb=     40 NOA=     4 NOB=     4 NVA=    36 NVB=    36

 **** Warning!!: The largest alpha MO coefficient is  0.10142343D+02

 Leave Link  801 at Thu Nov  7 22:50:21 2019, MaxMem=  1310720000 cpu:         0.8
 (Enter /usr/local/gaussian/g09/l906.exe)
 Frozen-core derivative calculation, NFC=   1 NFV=   0.
 FulOut=F Deriv=T AODrv=T NAtomX=     3
   MMem=       30571  MDisk=           4 MDiskD=           4
  W3Min=        8815 MinDsk=       75198 NBas6D=          43
 NBas2D=         997    NTT=         946    LW2=     2040000
    MDV=  1310687152 MDiskM=      422702 NBas2p=         997
 Fully direct method using O(ONN) memory.
 IMap=   1   2   3   4   5
 JobTyp=1 Pass  1:  I=   2 to   5 NPSUse= 20 ParTrn=T ParDer=T DoDerP=T.
 Spin components of T(2) and E(2):
     alpha-alpha T2 =       0.7484818092D-02 E2=     -0.2744625993D-01
     alpha-beta  T2 =       0.4445052483D-01 E2=     -0.1615266480D+00
     beta-beta   T2 =       0.7484818092D-02 E2=     -0.2744625993D-01
 The integrals were generated   1 times.
 ANorm=    0.1029281381D+01
 E2 =    -0.2164191678D+00 EUMP2 =    -0.75897673139506D+02
 Leave Link  906 at Thu Nov  7 22:50:21 2019, MaxMem=  1310720000 cpu:         2.5
 (Enter /usr/local/gaussian/g09/l1002.exe)
 Minotr:  Closed shell wavefunction.
          Computing MP2/KS-MP2 derivatives.
          Using Z-Vector for PSCF gradient.
          Skipping F1 and S1 gradient terms here.
          IDoAtm=111
          Frozen-core window.
          Direct CPHF calculation.
          Differentiating once with respect to electric field.
                with respect to dipole field.
          Differentiating once with respect to nuclear coordinates.
          Using symmetry in CPHF.
          Requested convergence is 1.0D-10 RMS, and 1.0D-09 maximum.
          NewPWx=F KeepS1=T KeepF1=T KeepIn=T MapXYZ=F SortEE=F KeepMc=T.
          MDV=    1310719926 using IRadAn=       0.
 Keep R1 ints in memory in symmetry-blocked form, NReq=1217879.
 FoFCou: FMM=F IPFlag=           0 FMFlag=           0 FMFlg1=           0
         NFxFlg=           0 DoJE=F BraDBF=F KetDBF=F FulRan=T
         wScrn=  0.000000 ICntrl=     600 IOpCl=  0 I1Cent=           0 NGrid=           0
         NMat0=    1 NMatS0=    861 NMatT0=    0 NMatD0=    1 NMtDS0=    0 NMtDT0=    0
 Petite list used in FoFCou.
          Solving linear equations separately, MaxMat=       0.
          There are     1 degrees of freedom in the 1st order CPHF.  IDoFFX=0 NUNeed=     1.
 LinEq1:  Iter=  0 NonCon=     1 RMS=8.81D-03 Max=6.72D-02 NDo=     1
 AX will form     1 AO Fock derivatives at one time.
 LinEq1:  Iter=  1 NonCon=     1 RMS=2.32D-03 Max=1.24D-02 NDo=     1
 LinEq1:  Iter=  2 NonCon=     1 RMS=7.84D-04 Max=4.75D-03 NDo=     1
 LinEq1:  Iter=  3 NonCon=     1 RMS=1.26D-04 Max=5.93D-04 NDo=     1
 LinEq1:  Iter=  4 NonCon=     1 RMS=3.08D-05 Max=1.57D-04 NDo=     1
 LinEq1:  Iter=  5 NonCon=     1 RMS=5.66D-06 Max=2.70D-05 NDo=     1
 LinEq1:  Iter=  6 NonCon=     1 RMS=6.35D-07 Max=2.64D-06 NDo=     1
 LinEq1:  Iter=  7 NonCon=     1 RMS=5.89D-08 Max=2.35D-07 NDo=     1
 LinEq1:  Iter=  8 NonCon=     1 RMS=5.89D-09 Max=2.51D-08 NDo=     1
 LinEq1:  Iter=  9 NonCon=     1 RMS=7.30D-10 Max=4.59D-09 NDo=     1
 LinEq1:  Iter= 10 NonCon=     1 RMS=1.05D-10 Max=4.71D-10 NDo=     1
 LinEq1:  Iter= 11 NonCon=     0 RMS=1.62D-11 Max=6.19D-11 NDo=     1
 Linear equations converged to 1.000D-10 1.000D-09 after    11 iterations.
 End of Minotr F.D. properties file   721 does not exist.
 End of Minotr F.D. properties file   722 does not exist.
 End of Minotr F.D. properties file   788 does not exist.
 Leave Link 1002 at Thu Nov  7 22:50:21 2019, MaxMem=  1310720000 cpu:         3.3
 (Enter /usr/local/gaussian/g09/l701.exe)
 Compute integral first derivatives.
 ... and contract with generalized density number  2.
 Leave Link  701 at Thu Nov  7 22:50:21 2019, MaxMem=  1310720000 cpu:         2.7
 (Enter /usr/local/gaussian/g09/l702.exe)
 L702 exits ... SP integral derivatives will be done elsewhere.
 Leave Link  702 at Thu Nov  7 22:50:21 2019, MaxMem=  1310720000 cpu:         0.5
 (Enter /usr/local/gaussian/g09/l703.exe)
 Compute integral first derivatives, UseDBF=F ICtDFT=           0.
 Integral derivatives from FoFJK, PRISM(SPDF).
 Calling FoFJK, ICntrl=  10002127 FMM=F ISym2X=1 I1Cent= 0 IOpClX= 0 NMat=1 NMatS=1 NMatT=0.
 FoFJK:  IHMeth= 1 ICntrl=10002127 DoSepK=F KAlg= 0 I1Cent=   0 FoldK=F
 IRaf=         0 NMat=   1 IRICut=       1 DoRegI=T DoRafI=F ISym2E= 1.
 FoFCou: FMM=F IPFlag=           0 FMFlag=      100000 FMFlg1=         800
         NFxFlg=           0 DoJE=F BraDBF=F KetDBF=F FulRan=T
         wScrn=  0.000000 ICntrl=10002127 IOpCl=  0 I1Cent=           0 NGrid=           0
         NMat0=    1 NMatS0=      1 NMatT0=    0 NMatD0=    1 NMtDS0=    0 NMtDT0=    0
 Petite list used in FoFCou.
 Leave Link  703 at Thu Nov  7 22:50:22 2019, MaxMem=  1310720000 cpu:         2.6
 (Enter /usr/local/gaussian/g09/l716.exe)
 Dipole        = 4.45229109D-02 6.86171205D-01 2.35348721D-32
 ***** Axes restored to original set *****
 -------------------------------------------------------------------
 Center     Atomic                   Forces (Hartrees/Bohr)
 Number     Number              X              Y              Z
 -------------------------------------------------------------------
      1        1          -0.049752382    0.000000000   -1.415627344
      2        8          -0.032025444   -0.000000000    1.527946476
      3        1           0.081777826    0.000000000   -0.112319132
 -------------------------------------------------------------------
 Cartesian Forces:  Max     1.527946476 RMS     0.696134194
 Error on Z-matrix line number      3:  angle Alpha is outside the valid range of 0 to 180.
 Conversion from Z-matrix to cartesian coordinates failed:
 ---------------------------------------------------------------------------------------------------
                            Z-MATRIX (ANGSTROMS AND DEGREES)
   CD    Cent   Atom    N1       Length/X        N2       Alpha/Y        N3        Beta/Z          J
 ---------------------------------------------------------------------------------------------------
      1      1  H 
      2      2  O        1   0.618140(     1)
      3      3  H        1   1.736832(     2)      2  -31.352(     3)
 ---------------------------------------------------------------------------------------------------
 Error termination via Lnk1e in /usr/local/gaussian/g09/l716.exe at Thu Nov  7 22:50:22 2019.
 Job cpu time:       0 days  0 hours  2 minutes 33.4 seconds.
 File lengths (MBytes):  RWF=      5 Int=      0 D2E=      0 Chk=      1 Scr=      1
